<?xml version="1.0" encoding="UTF-8"?>

<!-- generated on 2024-11-28 17:10:05 by Eclipse SUMO sumo Version 1.20.0
<configuration xmlns:xsi="http://www.w3.org/2001/XMLSchema-instance" xsi:noNamespaceSchemaLocation="http://sumo.dlr.de/xsd/sumoConfiguration.xsd">

    <input>
        <net-file value="/opt/homebrew/opt/sumo/share/sumo/tools/2024-10-08-17-29-51/241109/241109.net.xml"/>
        <route-files value="             /opt/homebrew/opt/sumo/share/sumo/tools/2024-10-08-17-29-51/241104/bus.rou.xml,             /opt/homebrew/opt/sumo/share/sumo/tools/2024-10-08-17-29-51/241104/241104_random_route_pedestrian.rou.xml "/>
        <additional-files value="osm.poly.xml.gz,             /opt/homebrew/opt/sumo/share/sumo/tools/2024-10-08-17-29-51/241106/241106_induction_loops.add.xml,             /opt/homebrew/opt/sumo/share/sumo/tools/2024-10-08-17-29-51/241031/bus_stops.add.xml             "/>
    </input>

    <output>
        <tripinfo-output value="tripinfo.xml"/>
    </output>

    <processing>
        <ignore-route-errors value="true"/>
        <tls.actuated.jam-threshold value="30"/>
    </processing>

    <routing>
        <device.rerouting.adaptation-steps value="18"/>
        <device.rerouting.adaptation-interval value="10"/>
    </routing>

    <report>
        <verbose value="true"/>
        <duration-log.statistics value="true"/>
        <no-step-log value="true"/>
    </report>

    <gui_only>
        <gui-settings-file value="osm.view.xml"/>
    </gui_only>

</configuration>
-->

<tripinfos xmlns:xsi="http://www.w3.org/2001/XMLSchema-instance" xsi:noNamespaceSchemaLocation="http://sumo.dlr.de/xsd/tripinfo_file.xsd">
    <personinfo id="pedestrian21" depart="83.28" type="DEFAULT_PEDTYPE" speedFactor="1.16" duration="113.00" waitingTime="0.00" timeLoss="43.32" traveltime="113.00">
        <walk depart="84.00" departPos="0.00" arrival="197.00" arrivalPos="4.51" duration="113.00" routeLength="112.08" timeLoss="43.32" maxSpeed="1.61"/>
    </personinfo>
    <personinfo id="pedestrian23" depart="86.58" type="DEFAULT_PEDTYPE" speedFactor="1.01" duration="134.00" waitingTime="0.00" timeLoss="13.40" traveltime="134.00">
        <walk depart="87.00" departPos="0.00" arrival="221.00" arrivalPos="5.18" duration="134.00" routeLength="169.20" timeLoss="13.40" maxSpeed="1.40"/>
    </personinfo>
    <personinfo id="pedestrian22" depart="84.09" type="DEFAULT_PEDTYPE" speedFactor="1.02" duration="136.00" waitingTime="0.00" timeLoss="14.02" traveltime="136.00">
        <walk depart="85.00" departPos="0.00" arrival="221.00" arrivalPos="5.56" duration="136.00" routeLength="172.49" timeLoss="14.02" maxSpeed="1.41"/>
    </personinfo>
    <personinfo id="pedestrian47" depart="163.84" type="DEFAULT_PEDTYPE" speedFactor="0.96" duration="100.00" waitingTime="0.00" timeLoss="10.28" traveltime="100.00">
        <walk depart="164.00" departPos="0.00" arrival="264.00" arrivalPos="3.71" duration="100.00" routeLength="119.26" timeLoss="10.28" maxSpeed="1.33"/>
    </personinfo>
    <personinfo id="pedestrian44" depart="156.80" type="DEFAULT_PEDTYPE" speedFactor="1.10" duration="111.00" waitingTime="0.00" timeLoss="15.43" traveltime="111.00">
        <walk depart="157.00" departPos="0.00" arrival="268.00" arrivalPos="0.10" duration="111.00" routeLength="146.31" timeLoss="15.43" maxSpeed="1.53"/>
    </personinfo>
    <personinfo id="pedestrian49" depart="164.74" type="DEFAULT_PEDTYPE" speedFactor="1.04" duration="109.00" waitingTime="0.00" timeLoss="26.13" traveltime="109.00">
        <walk depart="165.00" departPos="0.00" arrival="274.00" arrivalPos="9.29" duration="109.00" routeLength="119.45" timeLoss="26.13" maxSpeed="1.44"/>
    </personinfo>
    <personinfo id="pedestrian29" depart="111.39" type="DEFAULT_PEDTYPE" speedFactor="0.92" duration="174.00" waitingTime="0.00" timeLoss="18.21" traveltime="174.00">
        <walk depart="112.00" departPos="0.00" arrival="286.00" arrivalPos="52.84" duration="174.00" routeLength="198.46" timeLoss="18.21" maxSpeed="1.27"/>
    </personinfo>
    <personinfo id="pedestrian14" depart="60.08" type="DEFAULT_PEDTYPE" speedFactor="1.12" duration="227.00" waitingTime="0.00" timeLoss="23.40" traveltime="227.00">
        <walk depart="61.00" departPos="0.00" arrival="288.00" arrivalPos="1.44" duration="227.00" routeLength="317.53" timeLoss="23.40" maxSpeed="1.56"/>
    </personinfo>
    <personinfo id="pedestrian74" depart="224.86" type="DEFAULT_PEDTYPE" speedFactor="0.91" duration="72.00" waitingTime="0.00" timeLoss="8.03" traveltime="72.00">
        <walk depart="225.00" departPos="0.00" arrival="297.00" arrivalPos="7.76" duration="72.00" routeLength="81.25" timeLoss="8.03" maxSpeed="1.27"/>
    </personinfo>
    <personinfo id="pedestrian5" depart="14.69" type="DEFAULT_PEDTYPE" speedFactor="0.83" duration="282.00" waitingTime="0.00" timeLoss="94.20" traveltime="282.00">
        <walk depart="15.00" departPos="0.00" arrival="297.00" arrivalPos="32.43" duration="282.00" routeLength="216.76" timeLoss="94.20" maxSpeed="1.15"/>
    </personinfo>
    <personinfo id="pedestrian110" depart="292.94" type="DEFAULT_PEDTYPE" speedFactor="1.10" duration="9.00" waitingTime="0.00" timeLoss="1.49" traveltime="9.00">
        <walk depart="293.00" departPos="0.00" arrival="302.00" arrivalPos="6.66" duration="9.00" routeLength="11.45" timeLoss="1.49" maxSpeed="1.52"/>
    </personinfo>
    <personinfo id="pedestrian24" depart="87.21" type="DEFAULT_PEDTYPE" speedFactor="0.97" duration="220.00" waitingTime="0.00" timeLoss="22.97" traveltime="220.00">
        <walk depart="88.00" departPos="0.00" arrival="308.00" arrivalPos="22.16" duration="220.00" routeLength="266.81" timeLoss="22.97" maxSpeed="1.35"/>
    </personinfo>
    <personinfo id="pedestrian92" depart="267.49" type="DEFAULT_PEDTYPE" speedFactor="0.98" duration="61.00" waitingTime="0.00" timeLoss="6.72" traveltime="61.00">
        <walk depart="268.00" departPos="0.00" arrival="329.00" arrivalPos="15.61" duration="61.00" routeLength="73.57" timeLoss="6.72" maxSpeed="1.36"/>
    </personinfo>
    <personinfo id="pedestrian46" depart="163.14" type="DEFAULT_PEDTYPE" speedFactor="1.03" duration="176.00" waitingTime="0.00" timeLoss="18.16" traveltime="176.00">
        <walk depart="164.00" departPos="0.00" arrival="340.00" arrivalPos="6.86" duration="176.00" routeLength="225.89" timeLoss="18.16" maxSpeed="1.43"/>
    </personinfo>
    <personinfo id="pedestrian63" depart="195.77" type="DEFAULT_PEDTYPE" speedFactor="1.14" duration="153.00" waitingTime="0.00" timeLoss="19.18" traveltime="153.00">
        <walk depart="196.00" departPos="0.00" arrival="349.00" arrivalPos="0.11" duration="153.00" routeLength="212.35" timeLoss="19.18" maxSpeed="1.59"/>
    </personinfo>
    <personinfo id="pedestrian39" depart="151.61" type="DEFAULT_PEDTYPE" speedFactor="1.17" duration="206.00" waitingTime="0.00" timeLoss="20.62" traveltime="206.00">
        <walk depart="152.00" departPos="0.00" arrival="358.00" arrivalPos="1.79" duration="206.00" routeLength="301.70" timeLoss="20.62" maxSpeed="1.63"/>
    </personinfo>
    <personinfo id="pedestrian117" depart="302.87" type="DEFAULT_PEDTYPE" speedFactor="1.07" duration="58.00" waitingTime="0.00" timeLoss="11.09" traveltime="58.00">
        <walk depart="303.00" departPos="0.00" arrival="361.00" arrivalPos="1.23" duration="58.00" routeLength="69.89" timeLoss="11.09" maxSpeed="1.49"/>
    </personinfo>
    <personinfo id="pedestrian12" depart="56.12" type="DEFAULT_PEDTYPE" speedFactor="1.03" duration="310.00" waitingTime="0.00" timeLoss="37.12" traveltime="310.00">
        <walk depart="57.00" departPos="0.00" arrival="367.00" arrivalPos="0.10" duration="310.00" routeLength="388.96" timeLoss="37.12" maxSpeed="1.43"/>
    </personinfo>
    <personinfo id="pedestrian38" depart="147.09" type="DEFAULT_PEDTYPE" speedFactor="1.01" duration="228.00" waitingTime="0.00" timeLoss="23.37" traveltime="228.00">
        <walk depart="148.00" departPos="0.00" arrival="376.00" arrivalPos="0.64" duration="228.00" routeLength="285.69" timeLoss="23.37" maxSpeed="1.40"/>
    </personinfo>
    <personinfo id="pedestrian36" depart="130.47" type="DEFAULT_PEDTYPE" speedFactor="1.18" duration="250.00" waitingTime="0.00" timeLoss="25.16" traveltime="250.00">
        <walk depart="131.00" departPos="0.00" arrival="381.00" arrivalPos="1.18" duration="250.00" routeLength="368.05" timeLoss="25.16" maxSpeed="1.64"/>
    </personinfo>
    <personinfo id="pedestrian89" depart="262.32" type="DEFAULT_PEDTYPE" speedFactor="1.02" duration="122.00" waitingTime="0.00" timeLoss="12.22" traveltime="122.00">
        <walk depart="263.00" departPos="0.00" arrival="385.00" arrivalPos="8.71" duration="122.00" routeLength="155.05" timeLoss="12.22" maxSpeed="1.41"/>
    </personinfo>
    <personinfo id="pedestrian148" depart="383.95" type="DEFAULT_PEDTYPE" speedFactor="1.01" duration="7.00" waitingTime="0.00" timeLoss="0.72" traveltime="7.00">
        <walk depart="384.00" departPos="0.00" arrival="391.00" arrivalPos="2.68" duration="7.00" routeLength="8.82" timeLoss="0.72" maxSpeed="1.41"/>
    </personinfo>
    <personinfo id="pedestrian67" depart="205.43" type="DEFAULT_PEDTYPE" speedFactor="1.12" duration="187.00" waitingTime="0.00" timeLoss="36.53" traveltime="187.00">
        <walk depart="206.00" departPos="0.00" arrival="393.00" arrivalPos="2.23" duration="187.00" routeLength="233.92" timeLoss="36.53" maxSpeed="1.55"/>
    </personinfo>
    <personinfo id="pedestrian149" depart="387.15" type="DEFAULT_PEDTYPE" speedFactor="1.12" duration="10.00" waitingTime="0.00" timeLoss="1.49" traveltime="10.00">
        <walk depart="388.00" departPos="0.00" arrival="398.00" arrivalPos="0.09" duration="10.00" routeLength="13.23" timeLoss="1.49" maxSpeed="1.55"/>
    </personinfo>
    <personinfo id="pedestrian135" depart="335.92" type="DEFAULT_PEDTYPE" speedFactor="1.02" duration="69.00" waitingTime="0.00" timeLoss="7.68" traveltime="69.00">
        <walk depart="336.00" departPos="0.00" arrival="405.00" arrivalPos="22.63" duration="69.00" routeLength="87.16" timeLoss="7.68" maxSpeed="1.42"/>
    </personinfo>
    <tripinfo id="f_0.0" depart="0.00" departLane="359458217#0_1" departPos="12.10" departSpeed="0.00" departDelay="0.00" arrival="412.00" arrivalLane="-1265069360#0_0" arrivalPos="30.54" arrivalSpeed="2.19" duration="412.00" routeLength="1306.22" waitingTime="79.00" waitingCount="3" stopTime="180.00" timeLoss="133.09" rerouteNo="0" devices="tripinfo_f_0.0" vType="bus_1" speedFactor="1.00" vaporized=""/>
    <tripinfo id="f_1.0" depart="0.00" departLane="1265069359_0" departPos="12.10" departSpeed="0.00" departDelay="0.00" arrival="414.00" arrivalLane="150041579#2_0" arrivalPos="23.12" arrivalSpeed="9.14" duration="414.00" routeLength="1295.89" waitingTime="73.00" waitingCount="4" stopTime="180.00" timeLoss="140.64" rerouteNo="0" devices="tripinfo_f_1.0" vType="bus_1" speedFactor="1.00" vaporized=""/>
    <personinfo id="pedestrian134" depart="335.09" type="DEFAULT_PEDTYPE" speedFactor="1.03" duration="79.00" waitingTime="0.00" timeLoss="7.45" traveltime="79.00">
        <walk depart="336.00" departPos="0.00" arrival="415.00" arrivalPos="4.58" duration="79.00" routeLength="102.49" timeLoss="7.45" maxSpeed="1.43"/>
    </personinfo>
    <personinfo id="pedestrian16" depart="70.60" type="DEFAULT_PEDTYPE" speedFactor="0.93" duration="344.00" waitingTime="0.00" timeLoss="34.75" traveltime="344.00">
        <walk depart="71.00" departPos="0.00" arrival="415.00" arrivalPos="6.62" duration="344.00" routeLength="398.08" timeLoss="34.75" maxSpeed="1.29"/>
    </personinfo>
    <personinfo id="pedestrian100" depart="277.36" type="DEFAULT_PEDTYPE" speedFactor="0.89" duration="145.00" waitingTime="0.00" timeLoss="15.65" traveltime="145.00">
        <walk depart="278.00" departPos="0.00" arrival="423.00" arrivalPos="5.18" duration="145.00" routeLength="160.22" timeLoss="15.65" maxSpeed="1.24"/>
    </personinfo>
    <personinfo id="pedestrian34" depart="127.34" type="DEFAULT_PEDTYPE" speedFactor="0.93" duration="304.00" waitingTime="0.00" timeLoss="33.71" traveltime="304.00">
        <walk depart="128.00" departPos="0.00" arrival="432.00" arrivalPos="13.91" duration="304.00" routeLength="349.61" timeLoss="33.71" maxSpeed="1.29"/>
    </personinfo>
    <personinfo id="pedestrian28" depart="105.33" type="DEFAULT_PEDTYPE" speedFactor="0.87" duration="330.00" waitingTime="0.00" timeLoss="39.79" traveltime="330.00">
        <walk depart="106.00" departPos="0.00" arrival="436.00" arrivalPos="23.11" duration="330.00" routeLength="351.72" timeLoss="39.79" maxSpeed="1.21"/>
    </personinfo>
    <personinfo id="pedestrian61" depart="189.23" type="DEFAULT_PEDTYPE" speedFactor="1.00" duration="252.00" waitingTime="0.00" timeLoss="23.76" traveltime="252.00">
        <walk depart="190.00" departPos="0.00" arrival="442.00" arrivalPos="4.54" duration="252.00" routeLength="315.74" timeLoss="23.76" maxSpeed="1.38"/>
    </personinfo>
    <personinfo id="pedestrian42" depart="154.67" type="DEFAULT_PEDTYPE" speedFactor="0.97" duration="289.00" waitingTime="0.00" timeLoss="35.70" traveltime="289.00">
        <walk depart="155.00" departPos="0.00" arrival="444.00" arrivalPos="5.39" duration="289.00" routeLength="342.38" timeLoss="35.70" maxSpeed="1.35"/>
    </personinfo>
    <personinfo id="pedestrian136" depart="338.28" type="DEFAULT_PEDTYPE" speedFactor="1.06" duration="111.00" waitingTime="0.00" timeLoss="15.78" traveltime="111.00">
        <walk depart="339.00" departPos="0.00" arrival="450.00" arrivalPos="12.52" duration="111.00" routeLength="140.31" timeLoss="15.78" maxSpeed="1.47"/>
    </personinfo>
    <personinfo id="pedestrian159" depart="411.81" type="DEFAULT_PEDTYPE" speedFactor="0.89" duration="42.00" waitingTime="0.00" timeLoss="4.26" traveltime="42.00">
        <walk depart="412.00" departPos="0.00" arrival="454.00" arrivalPos="1.24" duration="42.00" routeLength="46.49" timeLoss="4.26" maxSpeed="1.23"/>
    </personinfo>
    <personinfo id="pedestrian126" depart="323.27" type="DEFAULT_PEDTYPE" speedFactor="1.10" duration="136.00" waitingTime="0.00" timeLoss="37.89" traveltime="136.00">
        <walk depart="324.00" departPos="0.00" arrival="460.00" arrivalPos="11.25" duration="136.00" routeLength="149.40" timeLoss="37.89" maxSpeed="1.52"/>
    </personinfo>
    <personinfo id="pedestrian122" depart="308.06" type="DEFAULT_PEDTYPE" speedFactor="0.93" duration="153.00" waitingTime="0.00" timeLoss="18.11" traveltime="153.00">
        <walk depart="309.00" departPos="0.00" arrival="462.00" arrivalPos="8.19" duration="153.00" routeLength="173.80" timeLoss="18.11" maxSpeed="1.29"/>
    </personinfo>
    <personinfo id="pedestrian13" depart="57.06" type="DEFAULT_PEDTYPE" speedFactor="1.05" duration="407.00" waitingTime="0.00" timeLoss="41.43" traveltime="407.00">
        <walk depart="58.00" departPos="0.00" arrival="465.00" arrivalPos="73.06" duration="407.00" routeLength="531.65" timeLoss="41.43" maxSpeed="1.45"/>
    </personinfo>
    <personinfo id="pedestrian140" depart="360.95" type="DEFAULT_PEDTYPE" speedFactor="1.12" duration="105.00" waitingTime="0.00" timeLoss="12.45" traveltime="105.00">
        <walk depart="361.00" departPos="0.00" arrival="466.00" arrivalPos="9.04" duration="105.00" routeLength="143.77" timeLoss="12.45" maxSpeed="1.55"/>
    </personinfo>
    <personinfo id="pedestrian72" depart="214.74" type="DEFAULT_PEDTYPE" speedFactor="0.91" duration="264.00" waitingTime="0.00" timeLoss="26.94" traveltime="264.00">
        <walk depart="215.00" departPos="0.00" arrival="479.00" arrivalPos="13.67" duration="264.00" routeLength="298.56" timeLoss="26.94" maxSpeed="1.26"/>
    </personinfo>
    <personinfo id="pedestrian52" depart="173.81" type="DEFAULT_PEDTYPE" speedFactor="1.00" duration="307.00" waitingTime="0.00" timeLoss="37.53" traveltime="307.00">
        <walk depart="174.00" departPos="0.00" arrival="481.00" arrivalPos="3.12" duration="307.00" routeLength="373.29" timeLoss="37.53" maxSpeed="1.39"/>
    </personinfo>
    <personinfo id="pedestrian2" depart="6.82" type="DEFAULT_PEDTYPE" speedFactor="1.01" duration="477.00" waitingTime="0.00" timeLoss="50.43" traveltime="477.00">
        <walk depart="7.00" departPos="0.00" arrival="484.00" arrivalPos="9.65" duration="477.00" routeLength="598.62" timeLoss="50.43" maxSpeed="1.40"/>
    </personinfo>
    <personinfo id="pedestrian95" depart="269.76" type="DEFAULT_PEDTYPE" speedFactor="1.04" duration="216.00" waitingTime="0.00" timeLoss="21.41" traveltime="216.00">
        <walk depart="270.00" departPos="0.00" arrival="486.00" arrivalPos="35.20" duration="216.00" routeLength="281.83" timeLoss="21.41" maxSpeed="1.45"/>
    </personinfo>
    <personinfo id="pedestrian83" depart="248.33" type="DEFAULT_PEDTYPE" speedFactor="1.03" duration="244.00" waitingTime="0.00" timeLoss="24.49" traveltime="244.00">
        <walk depart="249.00" departPos="0.00" arrival="493.00" arrivalPos="8.24" duration="244.00" routeLength="314.79" timeLoss="24.49" maxSpeed="1.43"/>
    </personinfo>
    <personinfo id="pedestrian141" depart="369.97" type="DEFAULT_PEDTYPE" speedFactor="1.01" duration="126.00" waitingTime="0.00" timeLoss="13.57" traveltime="126.00">
        <walk depart="370.00" departPos="0.00" arrival="496.00" arrivalPos="9.76" duration="126.00" routeLength="157.46" timeLoss="13.57" maxSpeed="1.40"/>
    </personinfo>
    <personinfo id="pedestrian15" depart="60.10" type="DEFAULT_PEDTYPE" speedFactor="0.99" duration="445.00" waitingTime="0.00" timeLoss="48.42" traveltime="445.00">
        <walk depart="61.00" departPos="0.00" arrival="506.00" arrivalPos="0.89" duration="445.00" routeLength="545.96" timeLoss="48.42" maxSpeed="1.38"/>
    </personinfo>
    <personinfo id="pedestrian123" depart="314.30" type="DEFAULT_PEDTYPE" speedFactor="0.87" duration="202.00" waitingTime="0.00" timeLoss="21.03" traveltime="202.00">
        <walk depart="315.00" departPos="0.00" arrival="517.00" arrivalPos="14.27" duration="202.00" routeLength="217.65" timeLoss="21.03" maxSpeed="1.20"/>
    </personinfo>
    <personinfo id="pedestrian50" depart="168.95" type="DEFAULT_PEDTYPE" speedFactor="1.04" duration="354.00" waitingTime="0.00" timeLoss="36.40" traveltime="354.00">
        <walk depart="169.00" departPos="0.00" arrival="523.00" arrivalPos="15.61" duration="354.00" routeLength="460.26" timeLoss="36.40" maxSpeed="1.45"/>
    </personinfo>
    <personinfo id="pedestrian146" depart="379.75" type="DEFAULT_PEDTYPE" speedFactor="1.04" duration="143.00" waitingTime="0.00" timeLoss="42.29" traveltime="143.00">
        <walk depart="380.00" departPos="0.00" arrival="523.00" arrivalPos="24.66" duration="143.00" routeLength="145.10" timeLoss="42.29" maxSpeed="1.44"/>
    </personinfo>
    <personinfo id="pedestrian57" depart="185.85" type="DEFAULT_PEDTYPE" speedFactor="1.17" duration="343.00" waitingTime="0.00" timeLoss="37.72" traveltime="343.00">
        <walk depart="186.00" departPos="0.00" arrival="529.00" arrivalPos="9.51" duration="343.00" routeLength="495.62" timeLoss="37.72" maxSpeed="1.62"/>
    </personinfo>
    <personinfo id="pedestrian0" depart="1.22" type="DEFAULT_PEDTYPE" speedFactor="1.06" duration="527.00" waitingTime="0.00" timeLoss="116.75" traveltime="527.00">
        <walk depart="2.00" departPos="0.00" arrival="529.00" arrivalPos="4.21" duration="527.00" routeLength="603.98" timeLoss="116.75" maxSpeed="1.47"/>
    </personinfo>
    <personinfo id="pedestrian58" depart="186.79" type="DEFAULT_PEDTYPE" speedFactor="1.02" duration="346.00" waitingTime="0.00" timeLoss="34.39" traveltime="346.00">
        <walk depart="187.00" departPos="0.00" arrival="533.00" arrivalPos="9.65" duration="346.00" routeLength="440.06" timeLoss="34.39" maxSpeed="1.41"/>
    </personinfo>
    <personinfo id="pedestrian6" depart="21.29" type="DEFAULT_PEDTYPE" speedFactor="1.05" duration="517.00" waitingTime="0.00" timeLoss="92.33" traveltime="517.00">
        <walk depart="22.00" departPos="0.00" arrival="539.00" arrivalPos="7.58" duration="517.00" routeLength="616.84" timeLoss="92.33" maxSpeed="1.45"/>
    </personinfo>
    <personinfo id="pedestrian51" depart="171.23" type="DEFAULT_PEDTYPE" speedFactor="1.09" duration="372.00" waitingTime="0.00" timeLoss="43.38" traveltime="372.00">
        <walk depart="172.00" departPos="0.00" arrival="544.00" arrivalPos="16.66" duration="372.00" routeLength="496.58" timeLoss="43.38" maxSpeed="1.51"/>
    </personinfo>
    <personinfo id="pedestrian86" depart="258.08" type="DEFAULT_PEDTYPE" speedFactor="1.09" duration="288.00" waitingTime="0.00" timeLoss="28.50" traveltime="288.00">
        <walk depart="259.00" departPos="0.00" arrival="547.00" arrivalPos="66.95" duration="288.00" routeLength="391.73" timeLoss="28.50" maxSpeed="1.51"/>
    </personinfo>
    <personinfo id="pedestrian94" depart="269.31" type="DEFAULT_PEDTYPE" speedFactor="1.00" duration="279.00" waitingTime="0.00" timeLoss="28.78" traveltime="279.00">
        <walk depart="270.00" departPos="0.00" arrival="549.00" arrivalPos="11.47" duration="279.00" routeLength="348.12" timeLoss="28.78" maxSpeed="1.39"/>
    </personinfo>
    <personinfo id="pedestrian40" depart="151.79" type="DEFAULT_PEDTYPE" speedFactor="0.99" duration="404.00" waitingTime="0.00" timeLoss="40.89" traveltime="404.00">
        <walk depart="152.00" departPos="0.00" arrival="556.00" arrivalPos="14.74" duration="404.00" routeLength="501.69" timeLoss="40.89" maxSpeed="1.38"/>
    </personinfo>
    <personinfo id="pedestrian105" depart="284.87" type="DEFAULT_PEDTYPE" speedFactor="1.06" duration="271.00" waitingTime="0.00" timeLoss="27.54" traveltime="271.00">
        <walk depart="285.00" departPos="0.00" arrival="556.00" arrivalPos="23.57" duration="271.00" routeLength="357.35" timeLoss="27.54" maxSpeed="1.47"/>
    </personinfo>
    <personinfo id="pedestrian81" depart="246.75" type="DEFAULT_PEDTYPE" speedFactor="0.96" duration="313.00" waitingTime="0.00" timeLoss="30.52" traveltime="313.00">
        <walk depart="247.00" departPos="0.00" arrival="560.00" arrivalPos="4.54" duration="313.00" routeLength="374.72" timeLoss="30.52" maxSpeed="1.33"/>
    </personinfo>
    <personinfo id="pedestrian124" depart="318.32" type="DEFAULT_PEDTYPE" speedFactor="1.10" duration="244.00" waitingTime="0.00" timeLoss="25.24" traveltime="244.00">
        <walk depart="319.00" departPos="0.00" arrival="563.00" arrivalPos="18.91" duration="244.00" routeLength="333.76" timeLoss="25.24" maxSpeed="1.53"/>
    </personinfo>
    <personinfo id="pedestrian170" depart="436.38" type="DEFAULT_PEDTYPE" speedFactor="1.18" duration="128.00" waitingTime="0.00" timeLoss="15.88" traveltime="128.00">
        <walk depart="437.00" departPos="0.00" arrival="565.00" arrivalPos="1.83" duration="128.00" routeLength="183.59" timeLoss="15.88" maxSpeed="1.64"/>
    </personinfo>
    <personinfo id="pedestrian163" depart="420.93" type="DEFAULT_PEDTYPE" speedFactor="1.04" duration="150.00" waitingTime="0.00" timeLoss="16.14" traveltime="150.00">
        <walk depart="421.00" departPos="0.00" arrival="571.00" arrivalPos="0.10" duration="150.00" routeLength="193.33" timeLoss="16.14" maxSpeed="1.44"/>
    </personinfo>
    <personinfo id="pedestrian153" depart="396.54" type="DEFAULT_PEDTYPE" speedFactor="1.11" duration="176.00" waitingTime="0.00" timeLoss="16.80" traveltime="176.00">
        <walk depart="397.00" departPos="0.00" arrival="573.00" arrivalPos="13.96" duration="176.00" routeLength="246.28" timeLoss="16.80" maxSpeed="1.55"/>
    </personinfo>
    <personinfo id="pedestrian143" depart="375.66" type="DEFAULT_PEDTYPE" speedFactor="1.07" duration="197.00" waitingTime="0.00" timeLoss="20.48" traveltime="197.00">
        <walk depart="376.00" departPos="0.00" arrival="573.00" arrivalPos="36.08" duration="197.00" routeLength="261.92" timeLoss="20.48" maxSpeed="1.48"/>
    </personinfo>
    <personinfo id="pedestrian121" depart="307.53" type="DEFAULT_PEDTYPE" speedFactor="0.96" duration="266.00" waitingTime="0.00" timeLoss="34.57" traveltime="266.00">
        <walk depart="308.00" departPos="0.00" arrival="574.00" arrivalPos="3.91" duration="266.00" routeLength="308.45" timeLoss="34.57" maxSpeed="1.33"/>
    </personinfo>
    <personinfo id="pedestrian230" depart="579.32" type="DEFAULT_PEDTYPE" speedFactor="0.96" duration="12.00" waitingTime="0.00" timeLoss="1.88" traveltime="12.00">
        <walk depart="580.00" departPos="0.00" arrival="592.00" arrivalPos="7.49" duration="12.00" routeLength="13.52" timeLoss="1.88" maxSpeed="1.34"/>
    </personinfo>
    <personinfo id="pedestrian25" depart="101.79" type="DEFAULT_PEDTYPE" speedFactor="0.89" duration="499.00" waitingTime="0.00" timeLoss="119.04" traveltime="499.00">
        <walk depart="102.00" departPos="0.00" arrival="601.00" arrivalPos="63.11" duration="499.00" routeLength="469.46" timeLoss="119.04" maxSpeed="1.24"/>
    </personinfo>
    <personinfo id="pedestrian37" depart="133.35" type="DEFAULT_PEDTYPE" speedFactor="1.15" duration="468.00" waitingTime="0.00" timeLoss="52.32" traveltime="468.00">
        <walk depart="134.00" departPos="0.00" arrival="602.00" arrivalPos="12.98" duration="468.00" routeLength="666.47" timeLoss="52.32" maxSpeed="1.60"/>
    </personinfo>
    <personinfo id="pedestrian30" depart="115.46" type="DEFAULT_PEDTYPE" speedFactor="0.95" duration="488.00" waitingTime="0.00" timeLoss="61.77" traveltime="488.00">
        <walk depart="116.00" departPos="0.00" arrival="604.00" arrivalPos="28.48" duration="488.00" routeLength="561.68" timeLoss="61.77" maxSpeed="1.32"/>
    </personinfo>
    <personinfo id="pedestrian9" depart="33.96" type="DEFAULT_PEDTYPE" speedFactor="0.94" duration="570.00" waitingTime="0.00" timeLoss="84.35" traveltime="570.00">
        <walk depart="34.00" departPos="0.00" arrival="604.00" arrivalPos="12.22" duration="570.00" routeLength="632.62" timeLoss="84.35" maxSpeed="1.30"/>
    </personinfo>
    <personinfo id="pedestrian132" depart="332.15" type="DEFAULT_PEDTYPE" speedFactor="0.94" duration="272.00" waitingTime="0.00" timeLoss="28.38" traveltime="272.00">
        <walk depart="333.00" departPos="0.00" arrival="605.00" arrivalPos="9.62" duration="272.00" routeLength="318.57" timeLoss="28.38" maxSpeed="1.31"/>
    </personinfo>
    <personinfo id="pedestrian98" depart="276.35" type="DEFAULT_PEDTYPE" speedFactor="1.02" duration="330.00" waitingTime="0.00" timeLoss="34.23" traveltime="330.00">
        <walk depart="277.00" departPos="0.00" arrival="607.00" arrivalPos="4.40" duration="330.00" routeLength="417.65" timeLoss="34.23" maxSpeed="1.41"/>
    </personinfo>
    <personinfo id="pedestrian59" depart="186.88" type="DEFAULT_PEDTYPE" speedFactor="1.10" duration="422.00" waitingTime="0.00" timeLoss="76.60" traveltime="422.00">
        <walk depart="187.00" departPos="0.00" arrival="609.00" arrivalPos="4.86" duration="422.00" routeLength="525.68" timeLoss="76.60" maxSpeed="1.52"/>
    </personinfo>
    <personinfo id="pedestrian17" depart="76.48" type="DEFAULT_PEDTYPE" speedFactor="0.88" duration="533.00" waitingTime="0.00" timeLoss="96.65" traveltime="533.00">
        <walk depart="77.00" departPos="0.00" arrival="610.00" arrivalPos="10.34" duration="533.00" routeLength="532.35" timeLoss="96.65" maxSpeed="1.22"/>
    </personinfo>
    <personinfo id="pedestrian41" depart="154.32" type="DEFAULT_PEDTYPE" speedFactor="1.02" duration="457.00" waitingTime="0.00" timeLoss="47.31" traveltime="457.00">
        <walk depart="155.00" departPos="0.00" arrival="612.00" arrivalPos="0.10" duration="457.00" routeLength="580.22" timeLoss="47.31" maxSpeed="1.42"/>
    </personinfo>
    <personinfo id="pedestrian8" depart="31.29" type="DEFAULT_PEDTYPE" speedFactor="0.89" duration="581.00" waitingTime="0.00" timeLoss="137.02" traveltime="581.00">
        <walk depart="32.00" departPos="0.00" arrival="613.00" arrivalPos="12.22" duration="581.00" routeLength="546.34" timeLoss="137.02" maxSpeed="1.23"/>
    </personinfo>
    <personinfo id="pedestrian201" depart="500.53" type="DEFAULT_PEDTYPE" speedFactor="1.08" duration="116.00" waitingTime="0.00" timeLoss="11.16" traveltime="116.00">
        <walk depart="501.00" departPos="0.00" arrival="617.00" arrivalPos="4.20" duration="116.00" routeLength="157.12" timeLoss="11.16" maxSpeed="1.50"/>
    </personinfo>
    <personinfo id="pedestrian185" depart="467.72" type="DEFAULT_PEDTYPE" speedFactor="0.90" duration="160.00" waitingTime="0.00" timeLoss="16.97" traveltime="160.00">
        <walk depart="468.00" departPos="0.00" arrival="628.00" arrivalPos="2.71" duration="160.00" routeLength="178.05" timeLoss="16.97" maxSpeed="1.24"/>
    </personinfo>
    <personinfo id="pedestrian76" depart="237.57" type="DEFAULT_PEDTYPE" speedFactor="1.02" duration="397.00" waitingTime="0.00" timeLoss="90.55" traveltime="397.00">
        <walk depart="238.00" departPos="0.00" arrival="635.00" arrivalPos="2.32" duration="397.00" routeLength="435.03" timeLoss="90.55" maxSpeed="1.42"/>
    </personinfo>
    <personinfo id="pedestrian113" depart="298.56" type="DEFAULT_PEDTYPE" speedFactor="0.96" duration="337.00" waitingTime="0.00" timeLoss="36.10" traveltime="337.00">
        <walk depart="299.00" departPos="0.00" arrival="636.00" arrivalPos="2.20" duration="337.00" routeLength="399.82" timeLoss="36.10" maxSpeed="1.33"/>
    </personinfo>
    <personinfo id="pedestrian19" depart="79.42" type="DEFAULT_PEDTYPE" speedFactor="0.94" duration="560.00" waitingTime="0.00" timeLoss="59.98" traveltime="560.00">
        <walk depart="80.00" departPos="0.00" arrival="640.00" arrivalPos="0.10" duration="560.00" routeLength="650.16" timeLoss="59.98" maxSpeed="1.30"/>
    </personinfo>
    <personinfo id="pedestrian240" depart="610.45" type="DEFAULT_PEDTYPE" speedFactor="0.97" duration="34.00" waitingTime="0.00" timeLoss="3.87" traveltime="34.00">