<?xml version="1.0" encoding="UTF-8"?>

<!-- generated on 2024-11-29 07:55:16 by Eclipse SUMO GUI Version 1.20.0
<configuration xmlns:xsi="http://www.w3.org/2001/XMLSchema-instance" xsi:noNamespaceSchemaLocation="http://sumo.dlr.de/xsd/sumoConfiguration.xsd">

    <input>
        <net-file value="/opt/homebrew/opt/sumo/share/sumo/tools/2024-10-08-17-29-51/241109/241109.net.xml"/>
        <route-files value="             /opt/homebrew/opt/sumo/share/sumo/tools/2024-10-08-17-29-51/241104/bus.rou.xml,             /opt/homebrew/opt/sumo/share/sumo/tools/2024-10-08-17-29-51/241104/241104_random_route_pedestrian.rou.xml,             /opt/homebrew/opt/sumo/share/sumo/tools/2024-10-08-17-29-51/241128/241031_random_route_bicycles.rou.xml,             /opt/homebrew/opt/sumo/share/sumo/tools/2024-10-08-17-29-51/241128/241031_random_route_cars.rou.xml"/>
        <additional-files value="osm.poly.xml.gz,             /opt/homebrew/opt/sumo/share/sumo/tools/2024-10-08-17-29-51/241106/241106_induction_loops.add.xml,             /opt/homebrew/opt/sumo/share/sumo/tools/2024-10-08-17-29-51/241031/bus_stops.add.xml             "/>
    </input>

    <output>
        <tripinfo-output value="tripinfo2.xml"/>
    </output>

    <processing>
        <ignore-route-errors value="true"/>
        <tls.actuated.jam-threshold value="30"/>
    </processing>

    <routing>
        <device.rerouting.adaptation-steps value="18"/>
        <device.rerouting.adaptation-interval value="10"/>
    </routing>

    <report>
        <verbose value="true"/>
        <duration-log.statistics value="true"/>
        <no-step-log value="true"/>
    </report>

    <gui_only>
        <gui-settings-file value="osm.view.xml"/>
    </gui_only>

</configuration>
-->

<tripinfos xmlns:xsi="http://www.w3.org/2001/XMLSchema-instance" xsi:noNamespaceSchemaLocation="http://sumo.dlr.de/xsd/tripinfo_file.xsd">
    <tripinfo id="1" depart="4.00" departLane="1265069359_0" departPos="5.10" departSpeed="0.00" departDelay="1.76" arrival="51.00" arrivalLane="-150032770#2_2" arrivalPos="18.09" arrivalSpeed="14.70" duration="47.00" routeLength="300.63" waitingTime="8.00" waitingCount="1" stopTime="0.00" timeLoss="25.56" rerouteNo="0" devices="tripinfo_1" vType="passenger" speedFactor="1.06" vaporized=""/>
    <tripinfo id="4" depart="61.00" departLane="-881694399_0" departPos="5.10" departSpeed="0.00" departDelay="0.46" arrival="103.00" arrivalLane="700440134_0" arrivalPos="32.52" arrivalSpeed="13.25" duration="42.00" routeLength="426.40" waitingTime="0.00" waitingCount="0" stopTime="0.00" timeLoss="4.38" rerouteNo="0" devices="tripinfo_4" vType="passenger" speedFactor="0.97" vaporized=""/>
    <tripinfo id="7" depart="84.00" departLane="-23015831_0" departPos="5.10" departSpeed="0.00" departDelay="0.49" arrival="108.00" arrivalLane="4195610#2_1" arrivalPos="29.48" arrivalSpeed="7.71" duration="24.00" routeLength="176.96" waitingTime="0.00" waitingCount="0" stopTime="0.00" timeLoss="3.62" rerouteNo="0" devices="tripinfo_7" vType="passenger" speedFactor="1.07" vaporized=""/>
    <tripinfo id="bike12" depart="80.00" departLane="150041565_1" departPos="1.70" departSpeed="0.00" departDelay="0.47" arrival="137.00" arrivalLane="-4295817#0_1" arrivalPos="41.31" arrivalSpeed="5.78" duration="57.00" routeLength="287.58" waitingTime="0.00" waitingCount="0" stopTime="0.00" timeLoss="7.27" rerouteNo="0" devices="tripinfo_bike12" vType="bike_bicycle" speedFactor="1.06" vaporized=""/>
    <tripinfo id="6" depart="80.00" departLane="-1290085526#1_0" departPos="5.10" departSpeed="0.00" departDelay="0.40" arrival="139.00" arrivalLane="715835444#5_1" arrivalPos="22.10" arrivalSpeed="7.43" duration="59.00" routeLength="378.72" waitingTime="0.00" waitingCount="0" stopTime="0.00" timeLoss="9.27" rerouteNo="0" devices="tripinfo_6" vType="passenger" speedFactor="0.89" vaporized=""/>
    <tripinfo id="bike22" depart="118.00" departLane="378479743#0_1" departPos="1.70" departSpeed="0.00" departDelay="0.13" arrival="168.00" arrivalLane="4195610#0_1" arrivalPos="89.14" arrivalSpeed="5.29" duration="50.00" routeLength="254.85" waitingTime="0.00" waitingCount="0" stopTime="0.00" timeLoss="4.99" rerouteNo="0" devices="tripinfo_bike22" vType="bike_bicycle" speedFactor="1.03" vaporized=""/>
    <tripinfo id="bike17" depart="88.00" departLane="700236093_0" departPos="1.70" departSpeed="0.00" departDelay="0.05" arrival="189.00" arrivalLane="150032770#1_1" arrivalPos="35.41" arrivalSpeed="5.04" duration="101.00" routeLength="350.89" waitingTime="26.00" waitingCount="1" stopTime="0.00" timeLoss="36.25" rerouteNo="0" devices="tripinfo_bike17" vType="bike_bicycle" speedFactor="0.98" vaporized=""/>
    <tripinfo id="bike18" depart="102.00" departLane="-23508141#1_1" departPos="1.70" departSpeed="0.00" departDelay="0.53" arrival="198.00" arrivalLane="4195610#0_1" arrivalPos="89.14" arrivalSpeed="5.15" duration="96.00" routeLength="490.52" waitingTime="0.00" waitingCount="0" stopTime="0.00" timeLoss="9.94" rerouteNo="0" devices="tripinfo_bike18" vType="bike_bicycle" speedFactor="1.03" vaporized=""/>
    <tripinfo id="3" depart="30.00" departLane="-4295817#3_1" departPos="5.10" departSpeed="0.00" departDelay="0.76" arrival="201.00" arrivalLane="59591195#2_0" arrivalPos="4.48" arrivalSpeed="11.99" duration="171.00" routeLength="1221.40" waitingTime="43.00" waitingCount="2" stopTime="0.00" timeLoss="68.98" rerouteNo="0" devices="tripinfo_3" vType="passenger" speedFactor="0.96" vaporized=""/>
    <tripinfo id="bike0" depart="2.00" departLane="-60263960_0" departPos="1.70" departSpeed="0.00" departDelay="0.25" arrival="205.00" arrivalLane="506013711#1_0" arrivalPos="42.34" arrivalSpeed="4.76" duration="203.00" routeLength="866.36" waitingTime="15.00" waitingCount="1" stopTime="0.00" timeLoss="35.94" rerouteNo="0" devices="tripinfo_bike0" vType="bike_bicycle" speedFactor="0.94" vaporized=""/>
    <personinfo id="pedestrian21" depart="83.28" type="DEFAULT_PEDTYPE" speedFactor="1.01" duration="124.00" waitingTime="0.00" timeLoss="44.12" traveltime="124.00">
        <walk depart="84.00" departPos="0.00" arrival="208.00" arrivalPos="4.51" duration="124.00" routeLength="112.08" timeLoss="44.12" maxSpeed="1.40"/>
    </personinfo>
    <tripinfo id="5" depart="80.00" departLane="4195610#0_1" departPos="5.10" departSpeed="0.00" departDelay="0.57" arrival="208.00" arrivalLane="-624481020#3_1" arrivalPos="77.40" arrivalSpeed="7.65" duration="128.00" routeLength="676.17" waitingTime="39.00" waitingCount="1" stopTime="0.00" timeLoss="54.33" rerouteNo="0" devices="tripinfo_5" vType="passenger" speedFactor="0.95" vaporized=""/>
    <tripinfo id="bike30" depart="164.00" departLane="624481020#4_1" departPos="1.70" departSpeed="0.00" departDelay="0.76" arrival="210.00" arrivalLane="1290085525#0_0" arrivalPos="12.63" arrivalSpeed="5.34" duration="46.00" routeLength="194.65" waitingTime="2.00" waitingCount="1" stopTime="0.00" timeLoss="11.92" rerouteNo="0" devices="tripinfo_bike30" vType="bike_bicycle" speedFactor="1.04" vaporized=""/>
    <tripinfo id="bike11" depart="71.00" departLane="116556688_0" departPos="1.70" departSpeed="0.00" departDelay="0.56" arrival="213.00" arrivalLane="35574708#1_0" arrivalPos="3.78" arrivalSpeed="5.05" duration="142.00" routeLength="625.84" waitingTime="5.00" waitingCount="1" stopTime="0.00" timeLoss="21.47" rerouteNo="0" devices="tripinfo_bike11" vType="bike_bicycle" speedFactor="0.94" vaporized=""/>
    <tripinfo id="15" depart="163.00" departLane="484022097_1" departPos="5.10" departSpeed="0.00" departDelay="0.69" arrival="218.00" arrivalLane="-70205228#2_0" arrivalPos="28.88" arrivalSpeed="8.55" duration="55.00" routeLength="389.61" waitingTime="0.00" waitingCount="0" stopTime="0.00" timeLoss="11.18" rerouteNo="0" devices="tripinfo_15" vType="passenger" speedFactor="1.10" vaporized=""/>
    <tripinfo id="bike31" depart="164.00" departLane="43135644#0_0" departPos="1.70" departSpeed="0.00" departDelay="0.10" arrival="221.00" arrivalLane="-700440136_0" arrivalPos="61.48" arrivalSpeed="5.21" duration="57.00" routeLength="238.27" waitingTime="5.00" waitingCount="1" stopTime="0.00" timeLoss="14.28" rerouteNo="0" devices="tripinfo_bike31" vType="bike_bicycle" speedFactor="1.01" vaporized=""/>
    <tripinfo id="13" depart="131.00" departLane="378479740#1_0" departPos="5.10" departSpeed="0.00" departDelay="0.95" arrival="223.00" arrivalLane="150041579#0_0" arrivalPos="0.20" arrivalSpeed="11.91" duration="92.00" routeLength="750.75" waitingTime="7.00" waitingCount="1" stopTime="0.00" timeLoss="33.32" rerouteNo="0" devices="tripinfo_13" vType="passenger" speedFactor="0.93" vaporized=""/>
    <personinfo id="pedestrian22" depart="84.09" type="DEFAULT_PEDTYPE" speedFactor="0.97" duration="140.00" waitingTime="0.00" timeLoss="12.62" traveltime="140.00">
        <walk depart="85.00" departPos="0.00" arrival="225.00" arrivalPos="5.56" duration="140.00" routeLength="172.49" timeLoss="12.62" maxSpeed="1.35"/>
    </personinfo>
    <tripinfo id="bike8" depart="57.00" departLane="-700440128_1" departPos="1.70" departSpeed="0.00" departDelay="0.73" arrival="228.00" arrivalLane="-23508224_1" arrivalPos="77.92" arrivalSpeed="5.60" duration="171.00" routeLength="831.06" waitingTime="4.00" waitingCount="1" stopTime="0.00" timeLoss="24.38" rerouteNo="0" devices="tripinfo_bike8" vType="bike_bicycle" speedFactor="1.02" vaporized=""/>
    <tripinfo id="bike24" depart="131.00" departLane="-70205228#0_0" departPos="1.70" departSpeed="0.00" departDelay="0.26" arrival="230.00" arrivalLane="182982119#0_1" arrivalPos="21.43" arrivalSpeed="5.40" duration="99.00" routeLength="464.77" waitingTime="4.00" waitingCount="1" stopTime="0.00" timeLoss="16.59" rerouteNo="0" devices="tripinfo_bike24" vType="bike_bicycle" speedFactor="1.02" vaporized=""/>
    <tripinfo id="14" depart="157.00" departLane="23248109#0_0" departPos="5.10" departSpeed="0.00" departDelay="0.92" arrival="230.00" arrivalLane="150032770#0_2" arrivalPos="0.19" arrivalSpeed="3.10" duration="73.00" routeLength="527.15" waitingTime="9.00" waitingCount="1" stopTime="0.00" timeLoss="26.81" rerouteNo="0" devices="tripinfo_14" vType="passenger" speedFactor="0.87" vaporized=""/>
    <personinfo id="pedestrian23" depart="86.58" type="DEFAULT_PEDTYPE" speedFactor="0.89" duration="152.00" waitingTime="0.00" timeLoss="15.06" traveltime="152.00">
        <walk depart="87.00" departPos="0.00" arrival="239.00" arrivalPos="5.18" duration="152.00" routeLength="169.20" timeLoss="15.06" maxSpeed="1.24"/>
    </personinfo>
    <tripinfo id="bike9" depart="58.00" departLane="150032770#5_1" departPos="1.70" departSpeed="0.00" departDelay="0.55" arrival="246.00" arrivalLane="-23508141#0_1" arrivalPos="3.05" arrivalSpeed="5.65" duration="188.00" routeLength="785.22" waitingTime="12.00" waitingCount="1" stopTime="0.00" timeLoss="29.34" rerouteNo="0" devices="tripinfo_bike9" vType="bike_bicycle" speedFactor="1.02" vaporized=""/>
    <tripinfo id="21" depart="206.00" departLane="150041594#0_1" departPos="5.10" departSpeed="0.00" departDelay="0.41" arrival="248.00" arrivalLane="4295817#0_1" arrivalPos="42.93" arrivalSpeed="7.59" duration="42.00" routeLength="287.83" waitingTime="0.00" waitingCount="0" stopTime="0.00" timeLoss="8.76" rerouteNo="0" devices="tripinfo_21" vType="passenger" speedFactor="1.00" vaporized=""/>
    <personinfo id="pedestrian29" depart="111.39" type="DEFAULT_PEDTYPE" speedFactor="1.13" duration="140.00" waitingTime="0.00" timeLoss="13.75" traveltime="140.00">
        <walk depart="112.00" departPos="0.00" arrival="252.00" arrivalPos="52.84" duration="140.00" routeLength="198.46" timeLoss="13.75" maxSpeed="1.57"/>
    </personinfo>
    <tripinfo id="0" depart="2.00" departLane="150041579#0_0" departPos="0.20" departSpeed="0.00" departDelay="0.94" arrival="252.00" arrivalLane="378479743#1_2" arrivalPos="25.03" arrivalSpeed="13.34" duration="250.00" routeLength="1129.38" waitingTime="112.00" waitingCount="4" stopTime="0.00" timeLoss="165.14" rerouteNo="0" devices="tripinfo_0" vType="passenger" speedFactor="1.01" vaporized=""/>
    <tripinfo id="18" depart="182.00" departLane="-4195580#1_1" departPos="4.00" departSpeed="0.00" departDelay="0.52" arrival="252.00" arrivalLane="-23508141#1_1" arrivalPos="20.68" arrivalSpeed="6.87" duration="70.00" routeLength="443.82" waitingTime="0.00" waitingCount="0" stopTime="0.00" timeLoss="9.98" rerouteNo="0" devices="tripinfo_18" vType="passenger" speedFactor="0.92" vaporized=""/>
    <personinfo id="pedestrian47" depart="163.84" type="DEFAULT_PEDTYPE" speedFactor="1.04" duration="92.00" waitingTime="0.00" timeLoss="9.26" traveltime="92.00">
        <walk depart="164.00" departPos="0.00" arrival="256.00" arrivalPos="3.71" duration="92.00" routeLength="119.26" timeLoss="9.26" maxSpeed="1.44"/>
    </personinfo>
    <tripinfo id="bike52" depart="247.00" departLane="4144040#0_1" departPos="0.17" departSpeed="0.00" departDelay="0.38" arrival="262.00" arrivalLane="4195580#0_1" arrivalPos="16.85" arrivalSpeed="5.21" duration="15.00" routeLength="30.76" waitingTime="6.00" waitingCount="1" stopTime="0.00" timeLoss="8.87" rerouteNo="0" devices="tripinfo_bike52" vType="bike_bicycle" speedFactor="0.98" vaporized=""/>
    <tripinfo id="20" depart="193.00" departLane="-4195580#0_1" departPos="5.10" departSpeed="0.00" departDelay="0.95" arrival="265.00" arrivalLane="-4295817#0_1" arrivalPos="41.31" arrivalSpeed="8.59" duration="72.00" routeLength="609.00" waitingTime="0.00" waitingCount="0" stopTime="0.00" timeLoss="9.17" rerouteNo="0" devices="tripinfo_20" vType="passenger" speedFactor="1.18" vaporized=""/>
    <tripinfo id="bike6" depart="42.00" departLane="116556688_0" departPos="1.70" departSpeed="0.00" departDelay="0.81" arrival="271.00" arrivalLane="56163443#1_0" arrivalPos="164.36" arrivalSpeed="4.72" duration="229.00" routeLength="850.24" waitingTime="39.00" waitingCount="2" stopTime="0.00" timeLoss="60.51" rerouteNo="0" devices="tripinfo_bike6" vType="bike_bicycle" speedFactor="0.91" vaporized=""/>
    <tripinfo id="bike45" depart="208.00" departLane="150041593_1" departPos="1.70" departSpeed="0.00" departDelay="0.89" arrival="271.00" arrivalLane="700440128_1" arrivalPos="32.74" arrivalSpeed="5.92" duration="63.00" routeLength="268.52" waitingTime="9.00" waitingCount="1" stopTime="0.00" timeLoss="17.72" rerouteNo="0" devices="tripinfo_bike45" vType="bike_bicycle" speedFactor="1.07" vaporized=""/>
    <tripinfo id="bike34" depart="179.00" departLane="150041580_0" departPos="1.70" departSpeed="0.00" departDelay="0.41" arrival="273.00" arrivalLane="-196656222#2_0" arrivalPos="0.76" arrivalSpeed="4.67" duration="94.00" routeLength="320.71" waitingTime="17.00" waitingCount="2" stopTime="0.00" timeLoss="28.72" rerouteNo="0" devices="tripinfo_bike34" vType="bike_bicycle" speedFactor="0.89" vaporized=""/>
    <personinfo id="pedestrian49" depart="164.74" type="DEFAULT_PEDTYPE" speedFactor="1.09" duration="109.00" waitingTime="0.00" timeLoss="29.95" traveltime="109.00">
        <walk depart="165.00" departPos="0.00" arrival="274.00" arrivalPos="9.29" duration="109.00" routeLength="119.45" timeLoss="29.95" maxSpeed="1.51"/>
    </personinfo>
    <personinfo id="pedestrian44" depart="156.80" type="DEFAULT_PEDTYPE" speedFactor="1.03" duration="117.00" waitingTime="0.00" timeLoss="14.77" traveltime="117.00">
        <walk depart="157.00" departPos="0.00" arrival="274.00" arrivalPos="0.10" duration="117.00" routeLength="146.31" timeLoss="14.77" maxSpeed="1.43"/>
    </personinfo>
    <tripinfo id="bike40" depart="193.00" departLane="700440130#1_1" departPos="1.70" departSpeed="0.00" departDelay="0.68" arrival="274.00" arrivalLane="715835444#4_1" arrivalPos="42.79" arrivalSpeed="4.59" duration="81.00" routeLength="361.07" waitingTime="0.00" waitingCount="0" stopTime="0.00" timeLoss="8.12" rerouteNo="0" devices="tripinfo_bike40" vType="bike_bicycle" speedFactor="0.91" vaporized=""/>
    <tripinfo id="bike38" depart="189.00" departLane="715913363#2_0" departPos="1.70" departSpeed="0.00" departDelay="0.05" arrival="275.00" arrivalLane="23508141#1_1" arrivalPos="20.68" arrivalSpeed="5.86" duration="86.00" routeLength="411.25" waitingTime="5.00" waitingCount="1" stopTime="0.00" timeLoss="15.76" rerouteNo="0" devices="tripinfo_bike38" vType="bike_bicycle" speedFactor="1.06" vaporized=""/>
    <tripinfo id="bike5" depart="34.00" departLane="700440130#0_1" departPos="1.70" departSpeed="0.00" departDelay="0.93" arrival="277.00" arrivalLane="-378479743#0_1" arrivalPos="61.81" arrivalSpeed="4.91" duration="243.00" routeLength="1137.34" waitingTime="0.00" waitingCount="0" stopTime="0.00" timeLoss="17.16" rerouteNo="0" devices="tripinfo_bike5" vType="bike_bicycle" speedFactor="0.91" vaporized=""/>
    <tripinfo id="bike35" depart="182.00" departLane="-23015831_0" departPos="1.70" departSpeed="0.00" departDelay="0.59" arrival="281.00" arrivalLane="150032770#2_1" arrivalPos="18.09" arrivalSpeed="4.14" duration="99.00" routeLength="262.86" waitingTime="0.00" waitingCount="0" stopTime="0.00" timeLoss="19.30" rerouteNo="0" devices="tripinfo_bike35" vType="bike_bicycle" speedFactor="0.83" vaporized=""/>
    <tripinfo id="8" depart="87.00" departLane="150041594#0_1" departPos="5.10" departSpeed="0.00" departDelay="0.86" arrival="285.00" arrivalLane="484022097_1" arrivalPos="9.96" arrivalSpeed="7.80" duration="198.00" routeLength="853.45" waitingTime="94.00" waitingCount="3" stopTime="0.00" timeLoss="125.57" rerouteNo="0" devices="tripinfo_8" vType="passenger" speedFactor="1.01" vaporized=""/>
    <personinfo id="pedestrian74" depart="224.86" type="DEFAULT_PEDTYPE" speedFactor="1.15" duration="62.00" waitingTime="0.00" timeLoss="11.25" traveltime="62.00">
        <walk depart="225.00" departPos="0.00" arrival="287.00" arrivalPos="7.76" duration="62.00" routeLength="81.25" timeLoss="11.25" maxSpeed="1.60"/>
    </personinfo>
    <personinfo id="pedestrian5" depart="14.69" type="DEFAULT_PEDTYPE" speedFactor="0.89" duration="274.00" waitingTime="0.00" timeLoss="97.85" traveltime="274.00">
        <walk depart="15.00" departPos="0.00" arrival="289.00" arrivalPos="32.43" duration="274.00" routeLength="216.76" timeLoss="97.85" maxSpeed="1.23"/>
    </personinfo>
    <tripinfo id="26" depart="238.00" departLane="23248109#1_0" departPos="5.10" departSpeed="0.00" departDelay="0.38" arrival="292.00" arrivalLane="-624481020#3_1" arrivalPos="77.40" arrivalSpeed="7.13" duration="54.00" routeLength="457.67" waitingTime="0.00" waitingCount="0" stopTime="0.00" timeLoss="9.21" rerouteNo="0" devices="tripinfo_26" vType="passenger" speedFactor="0.88" vaporized=""/>
    <tripinfo id="bike23" depart="128.00" departLane="1290085525#0_0" departPos="1.70" departSpeed="0.00" departDelay="0.56" arrival="294.00" arrivalLane="378479740#1_0" arrivalPos="34.70" arrivalSpeed="5.07" duration="166.00" routeLength="544.26" waitingTime="53.00" waitingCount="1" stopTime="0.00" timeLoss="67.02" rerouteNo="0" devices="tripinfo_bike23" vType="bike_bicycle" speedFactor="1.00" vaporized=""/>
    <tripinfo id="10" depart="103.00" departLane="182982119#0_1" departPos="5.10" departSpeed="0.00" departDelay="0.18" arrival="294.00" arrivalLane="59591195#1_0" arrivalPos="10.47" arrivalSpeed="7.06" duration="191.00" routeLength="1167.05" waitingTime="45.00" waitingCount="2" stopTime="0.00" timeLoss="96.75" rerouteNo="0" devices="tripinfo_10" vType="passenger" speedFactor="1.03" vaporized=""/>
    <tripinfo id="bike10" depart="61.00" departLane="-182982119#1_1" departPos="1.70" departSpeed="0.00" departDelay="0.55" arrival="297.00" arrivalLane="150032770#6_1" arrivalPos="19.25" arrivalSpeed="4.85" duration="236.00" routeLength="1054.55" waitingTime="1.00" waitingCount="1" stopTime="0.00" timeLoss="21.52" rerouteNo="0" devices="tripinfo_bike10" vType="bike_bicycle" speedFactor="0.97" vaporized=""/>
    <tripinfo id="34" depart="264.00" departLane="624481020#2_1" departPos="5.10" departSpeed="0.00" departDelay="0.58" arrival="297.00" arrivalLane="1290085525#0_1" arrivalPos="12.63" arrivalSpeed="15.22" duration="33.00" routeLength="276.60" waitingTime="0.00" waitingCount="0" stopTime="0.00" timeLoss="10.56" rerouteNo="0" devices="tripinfo_34" vType="passenger" speedFactor="1.13" vaporized=""/>
    <tripinfo id="bike4" depart="30.00" departLane="59591195#2_0" departPos="1.70" departSpeed="0.00" departDelay="0.86" arrival="298.00" arrivalLane="-23248109#1_1" arrivalPos="33.66" arrivalSpeed="4.87" duration="268.00" routeLength="988.66" waitingTime="31.00" waitingCount="2" stopTime="0.00" timeLoss="64.39" rerouteNo="0" devices="tripinfo_bike4" vType="bike_bicycle" speedFactor="0.88" vaporized=""/>
    <tripinfo id="16" depart="164.00" departLane="4195610#0_1" departPos="5.10" departSpeed="0.00" departDelay="0.42" arrival="298.00" arrivalLane="-624481020#1_1" arrivalPos="0.20" arrivalSpeed="8.08" duration="134.00" routeLength="681.49" waitingTime="50.00" waitingCount="1" stopTime="0.00" timeLoss="63.87" rerouteNo="0" devices="tripinfo_16" vType="passenger" speedFactor="1.01" vaporized=""/>
    <tripinfo id="24" depart="208.00" departLane="-4195580#2_1" departPos="5.10" departSpeed="0.00" departDelay="0.32" arrival="299.00" arrivalLane="-4295817#3_1" arrivalPos="11.12" arrivalSpeed="7.86" duration="91.00" routeLength="550.25" waitingTime="0.00" waitingCount="0" stopTime="0.00" timeLoss="21.93" rerouteNo="0" devices="tripinfo_24" vType="passenger" speedFactor="0.99" vaporized=""/>
    <tripinfo id="bike7" depart="51.00" departLane="378479743#0_1" departPos="1.70" departSpeed="0.00" departDelay="0.46" arrival="300.00" arrivalLane="-1290085526#1_0" arrivalPos="43.07" arrivalSpeed="5.65" duration="249.00" routeLength="867.09" waitingTime="77.00" waitingCount="2" stopTime="0.00" timeLoss="97.90" rerouteNo="0" devices="tripinfo_bike7" vType="bike_bicycle" speedFactor="1.04" vaporized=""/>
    <tripinfo id="12" depart="128.00" departLane="4195580#1_1" departPos="4.00" departSpeed="0.00" departDelay="0.73" arrival="300.00" arrivalLane="-700440130#0_2" arrivalPos="27.38" arrivalSpeed="12.39" duration="172.00" routeLength="852.96" waitingTime="75.00" waitingCount="3" stopTime="0.00" timeLoss="104.56" rerouteNo="0" devices="tripinfo_12" vType="passenger" speedFactor="0.96" vaporized=""/>
    <personinfo id="pedestrian110" depart="292.94" type="DEFAULT_PEDTYPE" speedFactor="1.08" duration="9.00" waitingTime="0.00" timeLoss="1.36" traveltime="9.00">
        <walk depart="293.00" departPos="0.00" arrival="302.00" arrivalPos="6.66" duration="9.00" routeLength="11.45" timeLoss="1.36" maxSpeed="1.50"/>
    </personinfo>
    <tripinfo id="30" depart="249.00" departLane="700440130#1_1" departPos="5.10" departSpeed="0.00" departDelay="0.83" arrival="308.00" arrivalLane="23508224_1" arrivalPos="77.92" arrivalSpeed="9.55" duration="59.00" routeLength="530.21" waitingTime="0.00" waitingCount="0" stopTime="0.00" timeLoss="17.14" rerouteNo="0" devices="tripinfo_30" vType="passenger" speedFactor="1.30" vaporized=""/>
    <tripinfo id="bike33" depart="165.00" departLane="715835444#5_1" departPos="1.70" departSpeed="0.00" departDelay="0.42" arrival="310.00" arrivalLane="4144040#3_1" arrivalPos="19.01" arrivalSpeed="5.06" duration="145.00" routeLength="747.32" waitingTime="0.00" waitingCount="0" stopTime="0.00" timeLoss="11.94" rerouteNo="0" devices="tripinfo_bike33" vType="bike_bicycle" speedFactor="1.02" vaporized=""/>
    <tripinfo id="bike27" depart="152.00" departLane="700440131_1" departPos="1.70" departSpeed="0.00" departDelay="0.62" arrival="318.00" arrivalLane="23508141#0_1" arrivalPos="3.05" arrivalSpeed="6.37" duration="166.00" routeLength="627.80" waitingTime="41.00" waitingCount="3" stopTime="0.00" timeLoss="66.88" rerouteNo="0" devices="tripinfo_bike27" vType="bike_bicycle" speedFactor="1.15" vaporized=""/>
    <tripinfo id="bike1" depart="3.00" departLane="56163443#1_0" departPos="1.70" departSpeed="0.00" departDelay="0.00" arrival="319.00" arrivalLane="35574708#1_0" arrivalPos="3.78" arrivalSpeed="5.60" duration="316.00" routeLength="1176.58" waitingTime="75.00" waitingCount="2" stopTime="0.00" timeLoss="106.06" rerouteNo="0" devices="tripinfo_bike1" vType="bike_bicycle" speedFactor="1.02" vaporized=""/>
    <personinfo id="pedestrian92" depart="267.49" type="DEFAULT_PEDTYPE" speedFactor="1.13" duration="53.00" waitingTime="0.00" timeLoss="6.08" traveltime="53.00">
        <walk depart="268.00" departPos="0.00" arrival="321.00" arrivalPos="15.61" duration="53.00" routeLength="73.57" timeLoss="6.08" maxSpeed="1.57"/>
    </personinfo>
    <tripinfo id="17" depart="167.00" departLane="-624481020#4_1" departPos="5.10" departSpeed="0.00" departDelay="2.88" arrival="327.00" arrivalLane="-23508141#1_1" arrivalPos="20.68" arrivalSpeed="8.64" duration="160.00" routeLength="837.81" waitingTime="61.00" waitingCount="1" stopTime="0.00" timeLoss="78.06" rerouteNo="0" devices="tripinfo_17" vType="passenger" speedFactor="1.10" vaporized=""/>
    <tripinfo id="22" depart="206.00" departLane="75392301#1_0" departPos="5.10" departSpeed="0.00" departDelay="0.28" arrival="333.00" arrivalLane="214812786_0" arrivalPos="65.90" arrivalSpeed="12.13" duration="127.00" routeLength="949.74" waitingTime="0.00" waitingCount="0" stopTime="0.00" timeLoss="19.20" rerouteNo="0" devices="tripinfo_22" vType="passenger" speedFactor="0.93" vaporized=""/>
    <tripinfo id="bike39" depart="190.00" departLane="4144040#2_1" departPos="1.70" departSpeed="0.00" departDelay="0.71" arrival="335.00" arrivalLane="1290085526#0_1" arrivalPos="42.37" arrivalSpeed="5.06" duration="145.00" routeLength="742.08" waitingTime="0.00" waitingCount="0" stopTime="0.00" timeLoss="11.73" rerouteNo="0" devices="tripinfo_bike39" vType="bike_bicycle" speedFactor="1.01" vaporized=""/>
    <tripinfo id="bike69" depart="292.00" departLane="-23508141#1_1" departPos="1.70" departSpeed="0.00" departDelay="0.84" arrival="341.00" arrivalLane="4144040#2_1" arrivalPos="9.07" arrivalSpeed="5.22" duration="49.00" routeLength="236.08" waitingTime="0.00" waitingCount="0" stopTime="0.00" timeLoss="6.95" rerouteNo="0" devices="tripinfo_bike69" vType="bike_bicycle" speedFactor="1.02" vaporized=""/>
    <tripinfo id="bike21" depart="112.00" departLane="-378479743#1_1" departPos="1.70" departSpeed="0.00" departDelay="0.11" arrival="343.00" arrivalLane="378479743#3_1" arrivalPos="3.34" arrivalSpeed="5.92" duration="231.00" routeLength="732.22" waitingTime="74.00" waitingCount="2" stopTime="0.00" timeLoss="108.62" rerouteNo="0" devices="tripinfo_bike21" vType="bike_bicycle" speedFactor="1.09" vaporized=""/>
    <tripinfo id="bike42" depart="206.00" departLane="-150041551#3_1" departPos="1.70" departSpeed="0.00" departDelay="0.88" arrival="343.00" arrivalLane="-689912267#0_1" arrivalPos="0.20" arrivalSpeed="5.77" duration="137.00" routeLength="522.84" waitingTime="36.00" waitingCount="1" stopTime="0.00" timeLoss="50.30" rerouteNo="0" devices="tripinfo_bike42" vType="bike_bicycle" speedFactor="1.10" vaporized=""/>
    <tripinfo id="29" depart="242.00" departLane="700440130#0_1" departPos="5.10" departSpeed="0.00" departDelay="0.61" arrival="343.00" arrivalLane="150041593_2" arrivalPos="17.88" arrivalSpeed="6.99" duration="101.00" routeLength="565.80" waitingTime="14.00" waitingCount="3" stopTime="0.00" timeLoss="53.87" rerouteNo="0" devices="tripinfo_29" vType="passenger" speedFactor="0.96" vaporized=""/>
    <tripinfo id="bike3" depart="15.00" departLane="E2_0" departPos="1.70" departSpeed="0.00" departDelay="0.51" arrival="346.00" arrivalLane="23248109#0_0" arrivalPos="7.08" arrivalSpeed="4.91" duration="331.00" routeLength="1229.47" waitingTime="61.00" waitingCount="2" stopTime="0.00" timeLoss="93.10" rerouteNo="0" devices="tripinfo_bike3" vType="bike_bicycle" speedFactor="0.94" vaporized=""/>
    <tripinfo id="32" depart="261.00" departLane="-4195580#0_1" departPos="5.10" departSpeed="0.00" departDelay="0.65" arrival="346.00" arrivalLane="-150041551#1_1" arrivalPos="8.39" arrivalSpeed="4.91" duration="85.00" routeLength="477.41" waitingTime="0.00" waitingCount="0" stopTime="0.00" timeLoss="14.23" rerouteNo="0" devices="tripinfo_32" vType="passenger" speedFactor="0.84" vaporized=""/>
    <tripinfo id="bike81" depart="330.00" departLane="150041551#0_1" departPos="1.70" departSpeed="0.00" departDelay="0.06" arrival="347.00" arrivalLane="150041551#1_1" arrivalPos="8.39" arrivalSpeed="5.24" duration="17.00" routeLength="70.16" waitingTime="0.00" waitingCount="0" stopTime="0.00" timeLoss="3.07" rerouteNo="0" devices="tripinfo_bike81" vType="bike_bicycle" speedFactor="0.96" vaporized=""/>
    <personinfo id="pedestrian46" depart="163.14" type="DEFAULT_PEDTYPE" speedFactor="1.09" duration="186.00" waitingTime="0.00" timeLoss="37.05" traveltime="186.00">
        <walk depart="164.00" departPos="0.00" arrival="350.00" arrivalPos="6.86" duration="186.00" routeLength="225.89" timeLoss="37.05" maxSpeed="1.52"/>
    </personinfo>
    <tripinfo id="bike25" depart="134.00" departLane="150032770#6_1" departPos="1.70" departSpeed="0.00" departDelay="0.48" arrival="351.00" arrivalLane="59591195#1_0" arrivalPos="10.47" arrivalSpeed="5.24" duration="217.00" routeLength="699.39" waitingTime="39.00" waitingCount="3" stopTime="0.00" timeLoss="65.22" rerouteNo="0" devices="tripinfo_bike25" vType="bike_bicycle" speedFactor="0.97" vaporized=""/>
    <tripinfo id="bike73" depart="299.00" departLane="-4295817#0_1" departPos="1.70" departSpeed="0.00" departDelay="0.39" arrival="352.00" arrivalLane="715835444#5_1" arrivalPos="22.10" arrivalSpeed="6.01" duration="53.00" routeLength="268.36" waitingTime="0.00" waitingCount="0" stopTime="0.00" timeLoss="7.77" rerouteNo="0" devices="tripinfo_bike73" vType="bike_bicycle" speedFactor="1.09" vaporized=""/>