<?xml version="1.0" encoding="UTF-8"?>

<!-- generated on 2024-10-09 11:27:52 by Eclipse SUMO sumo Version 1.20.0
<configuration xmlns:xsi="http://www.w3.org/2001/XMLSchema-instance" xsi:noNamespaceSchemaLocation="http://sumo.dlr.de/xsd/sumoConfiguration.xsd">

    <input>
        <net-file value="osm.net.xml.gz"/>
        <route-files value="trips.trips.xml"/>
        <additional-files value="osm_stops.add.xml"/>
    </input>

    <output>
        <vehroute-output value="vehroutes.xml"/>
        <stop-output value="stopinfos.xml"/>
    </output>

    <time>
        <begin value="0.0"/>
    </time>

    <processing>
        <ignore-route-errors value="true"/>
    </processing>

    <routing>
        <device.rerouting.adaptation-interval value="0"/>
    </routing>

    <report>
        <aggregate-warnings value="5"/>
        <error-log value="trips.trips.xml.errorlog"/>
        <no-step-log value="true"/>
    </report>

</configuration>
-->

<routes xmlns:xsi="http://www.w3.org/2001/XMLSchema-instance" xsi:noNamespaceSchemaLocation="http://sumo.dlr.de/xsd/routes_file.xsd">
    <vehicle id="0_bus_RH:0" type="pt_bus" depart="3.00" departLane="0" arrival="249.00">
        <route edges="1185215707 53207959#0 53207959#1 53207959#3 150041593 196656222#0 196656222#1 196656222#2 700440130#0 700440130#1 700440128 700440129 1290085526#0 150041594#0 56163443#1 700440137 700440134 214846345#1 214846345#2 214846345#3 253272005 378479743#0 378479743#1 378479743#2 378479743#3 378479743#4 378479743#5 378479743#6 -1265069358#1 -1265069360#0"/>
        <stop busStop="818872832" duration="30.00"/>
        <stop busStop="448433765" duration="30.00"/>
    </vehicle>

    <vehicle id="11_bus_F:0" type="pt_bus" depart="119.00" departLane="1" arrival="331.00">
        <route edges="51873805 60263960 116556688 43135644#0 715913363#2 1290085525#0 1290085525#1 700440148 378479743#0 378479743#1 378479743#2 378479743#3 378479743#4 378479743#5 378479743#6 -1265069358#1 -1265069360#0"/>
        <stop busStop="2385375149" duration="30.00"/>
    </vehicle>

    <vehicle id="15_bus_WE1:0" type="pt_bus" depart="320.00" departLane="0" arrival="360.00">
        <route edges="1265069359"/>
        <stop busStop="763225186" duration="30.00"/>
    </vehicle>

    <vehicle id="16_bus_WE2:0" type="pt_bus" depart="360.00" departLane="0" arrival="398.00">
        <route edges="1265069359"/>
        <stop busStop="763225186" duration="30.00"/>
    </vehicle>

    <vehicle id="1_bus_GB:0" type="pt_bus" depart="15.00" departLane="0" arrival="439.00">
        <route edges="1185215707 53207959#0 53207959#1 53207959#3 150041593 196656222#0 196656222#1 196656222#2 700440130#0 700440130#1 700440128 700440129 1290085526#0 150041594#0 56163443#1 700440137 700440134 214846345#1 214846345#2 214846345#3 253272005 378479743#0 378479743#1 378479743#2 378479743#3 378479743#4 378479743#5 378479743#6 -1265069358#1 -1265069360#0"/>
        <stop busStop="818872832" duration="30.00"/>
        <stop busStop="448433765" duration="30.00"/>
    </vehicle>

    <vehicle id="5_bus_672:2" type="pt_bus" depart="47.00" departLane="0" arrival="462.00">
        <route edges="1265069359 1265069358#1 -378479743#6 -378479743#5 -378479743#4 -378479743#3 -378479743#2 -378479743#1 -378479743#0 -253272005 -214846345#3 -214846345#2 -214846345#1 -38115197#1 -38115197#0 -700440136 -56163443#3 -150041594#1 -1290085526#1 -700440129 -700440128 -700440130#1 -700440130#0 -196656222#2 -196656222#1 -196656222#0 -53207957 150041579#0 150041579#2"/>
        <stop busStop="763225186" duration="30.00"/>
        <stop busStop="-243169788" duration="30.00"/>
        <stop busStop="-25599407" duration="30.00"/>
        <stop busStop="-15624443" duration="30.00"/>
    </vehicle>

    <vehicle id="7_bus_673:0" type="pt_bus" depart="108.00" departLane="0" arrival="502.00">
        <route edges="1265069359 1265069358#1 -378479743#6 -378479743#5 -378479743#4 -378479743#3 -378479743#2 -378479743#1 -378479743#0 -253272005 -214846345#3 -214846345#2 -214846345#1 -38115197#1 -38115197#0 -700440136 -56163443#3 -150041594#1 -1290085526#1 -700440129 -700440128 -700440130#1 -700440130#0 -196656222#2 -196656222#1 -196656222#0 -53207957 150041579#0 150041579#2"/>
        <stop busStop="763225186" duration="30.00"/>
        <stop busStop="-243169788" duration="30.00"/>
        <stop busStop="-25599407" duration="30.00"/>
        <stop busStop="-15624443" duration="30.00"/>
    </vehicle>

    <vehicle id="2_bus_MO1:0" type="pt_bus" depart="21.00" departLane="0" arrival="516.00">
        <route edges="1185215707 53207959#0 53207959#1 53207959#3 150041593 196656222#0 196656222#1 196656222#2 700440130#0 700440130#1 700440128 700440129 1290085526#0 150041594#0 56163443#1 700440137 700440134 214846345#1 214846345#2 214846345#3 253272005 378479743#0 378479743#1 378479743#2 378479743#3 378479743#4 378479743#5 378479743#6 -1265069358#1 -1265069360#0"/>
        <stop busStop="818872832" duration="30.00"/>
        <stop busStop="448433765" duration="30.00"/>
    </vehicle>

    <vehicle id="3_bus_672:0" type="pt_bus" depart="17.00" departLane="0" arrival="521.00">
        <route edges="150041578 38115189 359458217#0 359458217#2 38115188 150041593 196656222#0 196656222#1 196656222#2 700440130#0 700440130#1 700440128 700440129 1290085526#0 150041594#0 56163443#1 700440137 700440134 214846345#1 214846345#2 214846345#3 253272005 378479743#0 378479743#1 378479743#2 378479743#3 378479743#4 378479743#5 378479743#6 -1265069358#1 -1265069360#0"/>
        <stop busStop="448433719" duration="30.00"/>
        <stop busStop="818872832" duration="30.00"/>
        <stop busStop="448433765" duration="30.00"/>
    </vehicle>

    <vehicle id="12_bus_F:1" type="pt_bus" depart="252.00" departLane="0" arrival="536.00">
        <route edges="1265069359 1265069358#1 -378479743#6 -378479743#5 -378479743#4 -378479743#3 -378479743#2 -378479743#1 -378479743#0 -253272005 -214846345#3 -214846345#2 -214846345#1 116556686#1 -60263960 -51873805"/>
        <stop busStop="763225186" duration="30.00"/>
        <stop busStop="-2385375149" duration="30.00"/>
    </vehicle>

    <vehicle id="8_bus_673:1" type="pt_bus" depart="69.00" departLane="0" arrival="563.00">
        <route edges="150041578 38115189 359458217#0 359458217#2 38115188 150041593 196656222#0 196656222#1 196656222#2 700440130#0 700440130#1 700440128 700440129 1290085526#0 150041594#0 56163443#1 700440137 700440134 715913363#2 1290085525#0 1290085525#1 700440148 378479743#0 378479743#1 378479743#2 378479743#3 378479743#4 378479743#5 378479743#6 -1265069358#1 -1265069360#0"/>
        <stop busStop="448433719" duration="30.00"/>
        <stop busStop="818872832" duration="30.00"/>
    </vehicle>

    <vehicle id="21_bus_K:0" type="pt_bus" depart="545.00" departLane="0" arrival="583.00">
        <route edges="1265069359"/>
        <stop busStop="763225186" duration="30.00"/>
    </vehicle>

    <vehicle id="22_bus_H:0" type="pt_bus" depart="583.00" departLane="0" arrival="621.00">
        <route edges="1265069359"/>
        <stop busStop="763225186" duration="30.00"/>
    </vehicle>

    <vehicle id="4_bus_672:1" type="pt_bus" depart="27.00" departLane="0" arrival="634.00">
        <route edges="150041578 38115189 359458217#0 359458217#2 38115188 150041593 196656222#0 196656222#1 196656222#2 700440130#0 700440130#1 700440128 700440129 1290085526#0 150041594#0 56163443#1 700440137 700440134 214846345#1 214846345#2 214846345#3 253272005 378479743#0 378479743#1 378479743#2 378479743#3 378479743#4 378479743#5 378479743#6 -1265069358#1 -1265069360#0"/>
        <stop busStop="448433719" duration="30.00"/>
        <stop busStop="818872832" duration="30.00"/>
        <stop busStop="448433765" duration="30.00"/>
    </vehicle>

    <vehicle id="40_bus_FM:0" type="pt_bus" depart="483.00" departLane="1" arrival="637.00">
        <route edges="51873805 60263960 116556688 43135644#0 715913363#2 1290085525#0 1290085525#1 700440148 378479743#0 378479743#1 378479743#2 378479743#3 378479743#4 378479743#5 378479743#6 -1265069358#1 -1265069360#0"/>
        <stop busStop="2385375149" duration="30.00"/>
    </vehicle>

    <vehicle id="6_bus_672:3" type="pt_bus" depart="52.00" departLane="0" arrival="639.00">
        <route edges="150041578 38115189 359458217#0 359458217#2 38115188 150041593 196656222#0 196656222#1 196656222#2 700440130#0 700440130#1 700440128 700440129 1290085526#0 150041594#0 56163443#1 700440137 700440134 214846345#1 214846345#2 214846345#3 253272005 378479743#0 378479743#1 378479743#2 378479743#3 378479743#4 378479743#5 378479743#6 -1265069358#1 -1265069360#0"/>
        <stop busStop="448433719" duration="30.00"/>
        <stop busStop="818872832" duration="30.00"/>
        <stop busStop="448433765" duration="30.00"/>
    </vehicle>

    <vehicle id="9_bus_673:2" type="pt_bus" depart="145.00" departLane="0" arrival="659.00">
        <route edges="1265069359 1265069358#1 -378479743#6 -378479743#5 -378479743#4 -378479743#3 -378479743#2 -378479743#1 -378479743#0 -253272005 -214846345#3 -214846345#2 -214846345#1 -38115197#1 -38115197#0 -700440136 -56163443#3 -150041594#1 -1290085526#1 -700440129 -700440128 -700440130#1 -700440130#0 -196656222#2 -196656222#1 -196656222#0 -53207957 150041579#0 150041579#2"/>
        <stop busStop="763225186" duration="30.00"/>
        <stop busStop="-243169788" duration="30.00"/>
        <stop busStop="-25599407" duration="30.00"/>
        <stop busStop="-15624443" duration="30.00"/>
    </vehicle>

    <vehicle id="10_bus_673:3" type="pt_bus" depart="214.00" departLane="0" arrival="730.00">
        <route edges="1265069359 1265069358#1 -378479743#6 -378479743#5 -378479743#4 -378479743#3 -378479743#2 -378479743#1 -378479743#0 -253272005 -214846345#3 -214846345#2 -214846345#1 -38115197#1 -38115197#0 -700440136 -56163443#3 -150041594#1 -1290085526#1 -700440129 -700440128 -700440130#1 -700440130#0 -196656222#2 -196656222#1 -196656222#0 -53207957 150041579#0 150041579#2"/>
        <stop busStop="763225186" duration="30.00"/>
        <stop busStop="-243169788" duration="30.00"/>
        <stop busStop="-25599407" duration="30.00"/>
        <stop busStop="-15624443" duration="30.00"/>
    </vehicle>

    <vehicle id="18_bus_X69:1" type="pt_bus" depart="398.00" departLane="0" arrival="764.00">
        <route edges="1265069359 1265069358#1 -378479743#6 -378479743#5 -378479743#4 -378479743#3 -378479743#2 -378479743#1 -378479743#0 -253272005 -214846345#3 -214846345#2 -214846345#1 -38115197#1 -38115197#0 -700440136 -56163443#3 -150041594#1 -1290085526#1 -700440129 -700440128 -700440130#1 -700440130#0 -196656222#2 -196656222#1 -196656222#0 -53207957 150041579#0 150041579#2"/>
        <stop busStop="763225186" duration="30.00"/>
        <stop busStop="-243169788" duration="30.00"/>
        <stop busStop="-15624443" duration="30.00"/>
    </vehicle>

    <vehicle id="13_bus_671:0" type="pt_bus" depart="132.00" departLane="0" arrival="768.00">
        <route edges="150041578 38115189 359458217#0 359458217#2 38115188 150041593 196656222#0 196656222#1 196656222#2 700440130#0 700440130#1 700440128 700440129 1290085526#0 150041594#0 56163443#1 700440137 700440134 214846345#1 214846345#2 214846345#3 253272005 378479743#0 378479743#1 378479743#2 378479743#3 378479743#4 378479743#5 378479743#6 -1265069358#1 -1265069360#0"/>
        <stop busStop="448433719" duration="30.00"/>
        <stop busStop="818872832" duration="30.00"/>
        <stop busStop="448433765" duration="30.00"/>
    </vehicle>

    <vehicle id="23_bus_L:0" type="pt_bus" depart="621.00" departLane="0" arrival="782.00">
        <route edges="1265069359 1265069358#1 -378479743#6 -378479743#5 -378479743#4 -378479743#3 -378479743#2 -378479743#1 -378479743#0 700440131 506015829#1 506015832 700440133 214812788#2 73372559"/>
        <stop busStop="763225186" duration="30.00"/>
    </vehicle>

    <vehicle id="19_bus_671:2" type="pt_bus" depart="439.00" departLane="0" arrival="832.00">
        <route edges="1265069359 1265069358#1 -378479743#6 -378479743#5 -378479743#4 -378479743#3 -378479743#2 -378479743#1 -378479743#0 -253272005 -214846345#3 -214846345#2 -214846345#1 -38115197#1 -38115197#0 -700440136 -56163443#3 -150041594#1 -1290085526#1 -700440129 -700440128 -700440130#1 -700440130#0 -196656222#2 -196656222#1 -196656222#0 -53207957 150041579#0 150041579#2"/>
        <stop busStop="763225186" duration="30.00"/>
        <stop busStop="-243169788" duration="30.00"/>
        <stop busStop="-25599407" duration="30.00"/>
        <stop busStop="-15624443" duration="30.00"/>
    </vehicle>

    <vehicle id="14_bus_671:1" type="pt_bus" depart="138.00" departLane="0" arrival="856.00">
        <route edges="150041578 38115189 359458217#0 359458217#2 38115188 150041593 196656222#0 196656222#1 196656222#2 700440130#0 700440130#1 700440128 700440129 1290085526#0 150041594#0 56163443#1 700440137 700440134 214846345#1 214846345#2 214846345#3 253272005 378479743#0 378479743#1 378479743#2 378479743#3 378479743#4 378479743#5 378479743#6 -1265069358#1 -1265069360#0"/>
        <stop busStop="448433719" duration="30.00"/>
        <stop busStop="818872832" duration="30.00"/>
        <stop busStop="448433765" duration="30.00"/>
    </vehicle>

    <vehicle id="25_bus_673:4" type="pt_bus" depart="321.00" departLane="0" arrival="884.00">
        <route edges="150041578 38115189 359458217#0 359458217#2 38115188 150041593 196656222#0 196656222#1 196656222#2 700440130#0 700440130#1 700440128 700440129 1290085526#0 150041594#0 56163443#1 700440137 700440134 214846345#1 214846345#2 214846345#3 253272005 378479743#0 378479743#1 378479743#2 378479743#3 378479743#4 378479743#5 378479743#6 -1265069358#1 -1265069360#0"/>
        <stop busStop="448433719" duration="30.00"/>
        <stop busStop="818872832" duration="30.00"/>
        <stop busStop="448433765" duration="30.00"/>
    </vehicle>

    <vehicle id="20_bus_MO1:1" type="pt_bus" depart="507.00" departLane="0" arrival="919.00">
        <route edges="1265069359 1265069358#1 -378479743#6 -378479743#5 -378479743#4 -378479743#3 -378479743#2 -378479743#1 -378479743#0 -253272005 -214846345#3 -214846345#2 -214846345#1 -38115197#1 -38115197#0 -700440136 -56163443#3 -150041594#1 -1290085526#1 -700440129 -700440128 -700440130#1 -700440130#0 -150041565"/>
        <stop busStop="763225186" duration="30.00"/>
        <stop busStop="-243169788" duration="30.00"/>
        <stop busStop="-25599407" duration="30.00"/>
    </vehicle>

    <vehicle id="17_bus_X69:0" type="pt_bus" depart="165.00" departLane="0" arrival="938.00">
        <route edges="150041578 38115189 359458217#0 359458217#2 38115188 150041593 196656222#0 196656222#1 196656222#2 700440130#0 700440130#1 700440128 700440129 1290085526#0 150041594#0 56163443#1 700440137 700440134 214846345#1 214846345#2 214846345#3 253272005 378479743#0 378479743#1 378479743#2 378479743#3 378479743#4 378479743#5 378479743#6 700236092#0 700236092#1 700236093 44973978 506013711#1 35574708#1"/>
        <stop busStop="448433719" duration="30.00"/>
        <stop busStop="448433765" duration="30.00"/>
    </vehicle>

    <vehicle id="24_bus_X74:0" type="pt_bus" depart="660.00" departLane="0" arrival="970.00">
        <route edges="1265069359 1265069358#1 -378479743#6 -378479743#5 -378479743#4 -378479743#3 -378479743#2 -378479743#1 -378479743#0 -253272005 -214846345#3 -214846345#2 -214846345#1 -38115197#1 -38115197#0 -700440136 -56163443#3 -150041594#1 -1290085526#1 -700440129 -700440128 -700440130#1 -700440130#0 -196656222#2 -196656222#1 -196656222#0 -53207957 150041579#0 150041579#2"/>
        <stop busStop="763225186" duration="30.00"/>
        <stop busStop="-243169788" duration="30.00"/>
        <stop busStop="-15624443" duration="30.00"/>
    </vehicle>

    <vehicle id="30_bus_X78:1" type="pt_bus" depart="362.00" departLane="0" arrival="980.00">
        <route edges="150041578 38115189 359458217#0 359458217#2 38115188 150041593 196656222#0 196656222#1 196656222#2 700440130#0 700440130#1 700440128 700440129 1290085526#0 150041594#0 56163443#1 700440137 700440134 214846345#1 214846345#2 214846345#3 253272005 378479743#0 378479743#1 378479743#2 378479743#3 378479743#4 378479743#5 378479743#6 -1265069358#1 -1265069360#0"/>
        <stop busStop="448433719" duration="30.00"/>
        <stop busStop="818872832" duration="30.00"/>
        <stop busStop="448433765" duration="30.00"/>
    </vehicle>

    <vehicle id="32_bus_X78:3" type="pt_bus" depart="381.00" departLane="0" arrival="1070.00">
        <route edges="150041578 38115189 359458217#0 359458217#2 38115188 150041593 196656222#0 196656222#1 196656222#2 700440130#0 700440130#1 700440128 700440129 1290085526#0 150041594#0 56163443#1 700440137 700440134 214846345#1 214846345#2 214846345#3 253272005 378479743#0 378479743#1 378479743#2 378479743#3 378479743#4 378479743#5 378479743#6 -1265069358#1 -1265069360#0"/>
        <stop busStop="448433719" duration="30.00"/>
        <stop busStop="448433765" duration="30.00"/>
    </vehicle>

    <vehicle id="34_bus_X78:5" type="pt_bus" depart="401.00" departLane="0" arrival="1074.00">
        <route edges="150041578 38115189 359458217#0 359458217#2 38115188 150041593 196656222#0 196656222#1 196656222#2 700440130#0 700440130#1 700440128 700440129 1290085526#0 150041594#0 56163443#1 700440137 700440134 214846345#1 214846345#2 214846345#3 253272005 378479743#0 378479743#1 378479743#2 378479743#3 378479743#4 378479743#5 378479743#6 -1265069358#1 -1265069360#0"/>
        <stop busStop="448433719" duration="30.00"/>
        <stop busStop="448433765" duration="30.00"/>
    </vehicle>

    <vehicle id="36_bus_X78:7" type="pt_bus" depart="418.00" departLane="0" arrival="1097.00">
        <route edges="150041578 38115189 359458217#0 359458217#2 38115188 150041593 196656222#0 196656222#1 196656222#2 700440130#0 700440130#1 700440128 700440129 1290085526#0 150041594#0 56163443#1 700440137 700440134 214846345#1 214846345#2 214846345#3 253272005 378479743#0 378479743#1 378479743#2 378479743#3 378479743#4 378479743#5 378479743#6 -1265069358#1 -1265069360#0"/>
        <stop busStop="448433719" duration="30.00"/>
        <stop busStop="448433765" duration="30.00"/>
    </vehicle>

    <vehicle id="26_bus_RH:1" type="pt_bus" depart="729.00" departLane="0" arrival="1138.00">
        <route edges="1265069359 1265069358#1 -378479743#6 -378479743#5 -378479743#4 -378479743#3 -378479743#2 -378479743#1 -378479743#0 -253272005 -214846345#3 -214846345#2 -214846345#1 -38115197#1 -38115197#0 -700440136 -56163443#3 -150041594#1 -1290085526#1 -700440129 -700440128 -700440130#1 -700440130#0 -150041565"/>
        <stop busStop="763225186" duration="30.00"/>
        <stop busStop="-243169788" duration="30.00"/>
        <stop busStop="-25599407" duration="30.00"/>
    </vehicle>

    <vehicle id="37_bus_671:3" type="pt_bus" depart="453.00" departLane="0" arrival="1189.00">
        <route edges="150041578 38115189 359458217#0 359458217#2 38115188 150041593 196656222#0 196656222#1 196656222#2 700440130#0 700440130#1 700440128 700440129 1290085526#0 150041594#0 56163443#1 700440137 700440134 214846345#1 214846345#2 214846345#3 253272005 378479743#0 378479743#1 378479743#2 378479743#3 378479743#4 378479743#5 378479743#6 -1265069358#1 -1265069360#0"/>
        <stop busStop="448433719" duration="30.00"/>
        <stop busStop="818872832" duration="30.00"/>
        <stop busStop="448433765" duration="30.00"/>
    </vehicle>

    <vehicle id="45_bus_NHX:0" type="pt_bus" depart="517.00" departLane="0" arrival="1192.00">
        <route edges="150041578 38115189 359458217#0 359458217#2 38115188 150041593 196656222#0 196656222#1 196656222#2 700440130#0 700440130#1 700440128 700440129 1290085526#0 150041594#0 56163443#1 700440137 700440134 214846345#1 214846345#2 214846345#3 253272005 378479743#0 378479743#1 378479743#2 378479743#3 378479743#4 378479743#5 378479743#6 -1265069358#1 -1265069360#0"/>
        <stop busStop="448433719" duration="30.00"/>
        <stop busStop="818872832" duration="30.00"/>
        <stop busStop="448433765" duration="30.00"/>
    </vehicle>

    <vehicle id="27_bus_X71:0" type="pt_bus" depart="768.00" departLane="0" arrival="1210.00">
        <route edges="1265069359 1265069358#1 -378479743#6 -378479743#5 -378479743#4 -378479743#3 -378479743#2 -378479743#1 -378479743#0 -253272005 -214846345#3 -214846345#2 -214846345#1 -38115197#1 -38115197#0 -700440136 -56163443#3 -150041594#1 -1290085526#1 -700440129 -700440128 -700440130#1 -700440130#0 -196656222#2 -196656222#1 -196656222#0 -53207957 150041579#0 150041579#2"/>
        <stop busStop="763225186" duration="30.00"/>
        <stop busStop="-243169788" duration="30.00"/>
        <stop busStop="-15624443" duration="30.00"/>
    </vehicle>

    <vehicle id="47_bus_X71:1" type="pt_bus" depart="574.00" departLane="0" arrival="1211.00">
        <route edges="150041578 38115189 359458217#0 359458217#2 38115188 150041593 196656222#0 196656222#1 196656222#2 700440130#0 700440130#1 700440128 700440129 1290085526#0 150041594#0 56163443#1 700440137 700440134 214846345#1 214846345#2 214846345#3 253272005 378479743#0 378479743#1 378479743#2 378479743#3 378479743#4 378479743#5 378479743#6 -1265069358#1 -1265069360#0"/>
        <stop busStop="448433719" duration="30.00"/>
        <stop busStop="448433765" duration="30.00"/>
    </vehicle>

    <vehicle id="48_bus_X74:1" type="pt_bus" depart="583.00" departLane="0" arrival="1296.00">
        <route edges="150041578 38115189 359458217#0 359458217#2 38115188 150041593 196656222#0 196656222#1 196656222#2 700440130#0 700440130#1 700440128 700440129 1290085526#0 150041594#0 56163443#1 700440137 700440134 214846345#1 214846345#2 214846345#3 253272005 378479743#0 378479743#1 378479743#2 378479743#3 378479743#4 378479743#5 378479743#6 -1265069358#1 -1265069360#0"/>
        <stop busStop="448433719" duration="30.00"/>
        <stop busStop="448433765" duration="30.00"/>
    </vehicle>

    <vehicle id="42_bus_K:1" type="pt_bus" depart="1285.00" departLane="0" arrival="1324.00">
        <route edges="1265069359"/>
        <stop busStop="763225186" duration="30.00"/>
    </vehicle>

    <vehicle id="28_bus_GB:1" type="pt_bus" depart="847.00" departLane="0" arrival="1359.00">
        <route edges="1265069359 1265069358#1 -378479743#6 -378479743#5 -378479743#4 -378479743#3 -378479743#2 -378479743#1 -378479743#0 -253272005 -214846345#3 -214846345#2 -214846345#1 -38115197#1 -38115197#0 -700440136 -56163443#3 -150041594#1 -1290085526#1 -700440129 -700440128 -700440130#1 -700440130#0 -150041565"/>
        <stop busStop="763225186" duration="30.00"/>
        <stop busStop="-243169788" duration="30.00"/>
        <stop busStop="-25599407" duration="30.00"/>
    </vehicle>

    <vehicle id="29_bus_X78:0" type="pt_bus" depart="885.00" departLane="0" arrival="1416.00">
        <route edges="1265069359 1265069358#1 -378479743#6 -378479743#5 -378479743#4 -378479743#3 -378479743#2 -378479743#1 -378479743#0 -253272005 -214846345#3 -214846345#2 -214846345#1 -38115197#1 -38115197#0 -700440136 -56163443#3 -150041594#1 -1290085526#1 -700440129 -700440128 -700440130#1 -700440130#0 -196656222#2 -196656222#1 -196656222#0 -53207957 150041579#0 150041579#2"/>
        <stop busStop="763225186" duration="30.00"/>
        <stop busStop="-243169788" duration="30.00"/>
        <stop busStop="-25599407" duration="30.00"/>
        <stop busStop="-15624443" duration="30.00"/>
    </vehicle>

    <vehicle id="43_bus_678:0" type="pt_bus" depart="1324.00" departLane="0" arrival="1503.00">
        <route edges="1265069359 1265069358#1 -378479743#6 -378479743#5 -378479743#4 -378479743#3 -378479743#2 -378479743#1 -378479743#0 700440131 506015829#1 506015832 700440133 214812788#2 73372559"/>
        <stop busStop="763225186" duration="30.00"/>
    </vehicle>

    <vehicle id="31_bus_X78:2" type="pt_bus" depart="953.00" departLane="0" arrival="1588.00">
        <route edges="1265069359 1265069358#1 -378479743#6 -378479743#5 -378479743#4 -378479743#3 -378479743#2 -378479743#1 -378479743#0 -253272005 -214846345#3 -214846345#2 -214846345#1 -38115197#1 -38115197#0 -700440136 -56163443#3 -150041594#1 -1290085526#1 -700440129 -700440128 -700440130#1 -700440130#0 -196656222#2 -196656222#1 -196656222#0 -53207957 150041579#0 150041579#2"/>
        <stop busStop="763225186" duration="30.00"/>
        <stop busStop="-243169788" duration="30.00"/>
        <stop busStop="-25599407" duration="30.00"/>
        <stop busStop="-15624443" duration="30.00"/>
    </vehicle>

    <vehicle id="33_bus_X78:4" type="pt_bus" depart="992.00" departLane="0" arrival="1657.00">
        <route edges="1265069359 1265069358#1 -378479743#6 -378479743#5 -378479743#4 -378479743#3 -378479743#2 -378479743#1 -378479743#0 -253272005 -214846345#3 -214846345#2 -214846345#1 -38115197#1 -38115197#0 -700440136 -56163443#3 -150041594#1 -1290085526#1 -700440129 -700440128 -700440130#1 -700440130#0 -196656222#2 -196656222#1 -196656222#0 -53207957 150041579#0 150041579#2"/>
        <stop busStop="763225186" duration="30.00"/>
        <stop busStop="-243169788" duration="30.00"/>
        <stop busStop="-15624443" duration="30.00"/>
    </vehicle>

    <vehicle id="35_bus_X78:6" type="pt_bus" depart="1061.00" departLane="0" arrival="1725.00">
        <route edges="1265069359 1265069358#1 -378479743#6 -378479743#5 -378479743#4 -378479743#3 -378479743#2 -378479743#1 -378479743#0 -253272005 -214846345#3 -214846345#2 -214846345#1 -38115197#1 -38115197#0 -700440136 -56163443#3 -150041594#1 -1290085526#1 -700440129 -700440128 -700440130#1 -700440130#0 -196656222#2 -196656222#1 -196656222#0 -53207957 150041579#0 150041579#2"/>
        <stop busStop="763225186" duration="30.00"/>
        <stop busStop="-243169788" duration="30.00"/>
        <stop busStop="-15624443" duration="30.00"/>
    </vehicle>

    <vehicle id="41_bus_FM:1" type="pt_bus" depart="1217.00" departLane="0" arrival="1734.00">
        <route edges="1265069359 1265069358#1 -378479743#6 -378479743#5 -378479743#4 -378479743#3 -378479743#2 -378479743#1 -378479743#0 -253272005 -214846345#3 -214846345#2 -214846345#1 116556686#1 -60263960 -51873805"/>
        <stop busStop="763225186" duration="30.00"/>
    </vehicle>

    <vehicle id="38_bus_671:4" type="pt_bus" depart="1099.00" departLane="0" arrival="1793.00">
        <route edges="1265069359 1265069358#1 -378479743#6 -378479743#5 -378479743#4 -378479743#3 -378479743#2 -378479743#1 -378479743#0 -253272005 -214846345#3 -214846345#2 -214846345#1 -38115197#1 -38115197#0 -700440136 -56163443#3 -150041594#1 -1290085526#1 -700440129 -700440128 -700440130#1 -700440130#0 -196656222#2 -196656222#1 -196656222#0 -53207957 150041579#0 150041579#2"/>
        <stop busStop="763225186" duration="30.00"/>
        <stop busStop="-243169788" duration="30.00"/>
        <stop busStop="-25599407" duration="30.00"/>
        <stop busStop="-15624443" duration="30.00"/>
    </vehicle>

    <vehicle id="39_bus_671:5" type="pt_bus" depart="1178.00" departLane="0" arrival="1929.00">
        <route edges="1265069359 1265069358#1 -378479743#6 -378479743#5 -378479743#4 -378479743#3 -378479743#2 -378479743#1 -378479743#0 -253272005 -214846345#3 -214846345#2 -214846345#1 -38115197#1 -38115197#0 -700440136 -56163443#3 -150041594#1 -1290085526#1 -700440129 -700440128 -700440130#1 -700440130#0 -196656222#2 -196656222#1 -196656222#0 -53207957 150041579#0 150041579#2"/>
        <stop busStop="763225186" duration="30.00"/>
        <stop busStop="-243169788" duration="30.00"/>
        <stop busStop="-25599407" duration="30.00"/>
        <stop busStop="-15624443" duration="30.00"/>
    </vehicle>

    <vehicle id="44_bus_672:4" type="pt_bus" depart="1393.00" departLane="0" arrival="1999.00">
        <route edges="1265069359 1265069358#1 -378479743#6 -378479743#5 -378479743#4 -378479743#3 -378479743#2 -378479743#1 -378479743#0 -253272005 -214846345#3 -214846345#2 -214846345#1 -38115197#1 -38115197#0 -700440136 -56163443#3 -150041594#1 -1290085526#1 -700440129 -700440128 -700440130#1 -700440130#0 -196656222#2 -196656222#1 -196656222#0 -53207957 150041579#0 150041579#2"/>
        <stop busStop="763225186" duration="30.00"/>
        <stop busStop="-243169788" duration="30.00"/>
        <stop busStop="-25599407" duration="30.00"/>
        <stop busStop="-15624443" duration="30.00"/>
    </vehicle>

    <vehicle id="46_bus_NHX:1" type="pt_bus" depart="1431.00" departLane="0" arrival="2103.00">
        <route edges="1265069359 1265069358#1 -378479743#6 -378479743#5 -378479743#4 -378479743#3 -378479743#2 -378479743#1 -378479743#0 -253272005 -214846345#3 -214846345#2 -214846345#1 -38115197#1 -38115197#0 -700440136 -56163443#3 -150041594#1 -1290085526#1 -700440129 -700440128 -700440130#1 -700440130#0 -196656222#2 -196656222#1 -196656222#0 -53207957 150041579#0 150041579#2"/>
        <stop busStop="763225186" duration="30.00"/>
        <stop busStop="-243169788" duration="30.00"/>
        <stop busStop="-25599407" duration="30.00"/>
        <stop busStop="-15624443" duration="30.00"/>
    </vehicle>

</routes>
